2
Lattice="0.0 2.9655 2.9655 2.9655 0.0 2.9655 2.9655 2.9655 0.0" Properties=species:S:1:pos:R:3 energy=-341429.178625 pbc="T T T"
Cd       0.00000000       0.00000000       0.00000000 
Te       2.96550000       2.96550000       2.96550000 
2
Lattice="0.0 2.6555 2.6555 2.6555 0.0 2.6555 2.6555 2.6555 0.0" Properties=species:S:1:pos:R:3 energy=-71516.5080734 pbc="T T T"
Li       0.00000000       0.00000000       0.00000000 
Br       2.65550000       2.65550000       2.65550000 
2
Lattice="0.0 3.3335 3.3335 3.3335 0.0 3.3335 3.3335 3.3335 0.0" Properties=species:S:1:pos:R:3 energy=-152947.378785 pbc="T T T"
Rb       0.00000000       0.00000000       0.00000000 
Br       3.33350000       3.33350000       3.33350000 
2
Lattice="0.0 3.365 3.365 3.365 0.0 3.365 3.365 3.365 0.0" Properties=species:S:1:pos:R:3 energy=-227741.252421 pbc="T T T"
Cs       0.00000000       0.00000000       0.00000000 
Cl       3.36500000       3.36500000       3.36500000 
2
Lattice="0.0 2.6455 2.6455 2.6455 0.0 2.6455 2.6455 2.6455 0.0" Properties=species:S:1:pos:R:3 energy=-114719.122408 pbc="T T T"
Ge       0.00000000       0.00000000       0.00000000 
Ge       2.64550000       2.64550000       2.64550000 
2
Lattice="0.0 2.988 2.988 2.988 0.0 2.988 2.988 2.988 0.0" Properties=species:S:1:pos:R:3 energy=-340680.207213 pbc="T T T"
In       0.00000000       0.00000000       0.00000000 
Sb       2.98800000       2.98800000       2.98800000 
2
Lattice="0.0 2.9025 2.9025 2.9025 0.0 2.9025 2.9025 2.9025 0.0" Properties=species:S:1:pos:R:3 energy=-196631.810085 pbc="T T T"
Li       0.00000000       0.00000000       0.00000000 
I       2.90250000       2.90250000       2.90250000 
2
Lattice="0.0 2.7825 2.7825 2.7825 0.0 2.7825 2.7825 2.7825 0.0" Properties=species:S:1:pos:R:3 energy=-29363.8934821 pbc="T T T"
Ca       0.00000000       0.00000000       0.00000000 
S       2.78250000       2.78250000       2.78250000 
2
Lattice="0.0 3.2635 3.2635 3.2635 0.0 3.2635 3.2635 3.2635 0.0" Properties=species:S:1:pos:R:3 energy=-274538.974295 pbc="T T T"
Sr       0.00000000       0.00000000       0.00000000 
Te       3.26350000       3.26350000       3.26350000 
2
Lattice="0.0 1.792 1.792 1.792 0.0 1.792 1.792 1.792 0.0" Properties=species:S:1:pos:R:3 energy=-2436.87991693 pbc="T T T"
Be       0.00000000       0.00000000       0.00000000 
O       1.79200000       1.79200000       1.79200000 
2
Lattice="0.0 2.355 2.355 2.355 0.0 2.355 2.355 2.355 0.0" Properties=species:S:1:pos:R:3 energy=-20553.8021704 pbc="T T T"
Ca       0.00000000       0.00000000       0.00000000 
O       2.35500000       2.35500000       2.35500000 
2
Lattice="0.0 2.824 2.824 2.824 0.0 2.824 2.824 2.824 0.0" Properties=species:S:1:pos:R:3 energy=-185288.384009 pbc="T T T"
Al       0.00000000       0.00000000       0.00000000 
Sb       2.82400000       2.82400000       2.82400000 
2
Lattice="0.0 3.431 3.431 3.431 0.0 3.431 3.431 3.431 0.0" Properties=species:S:1:pos:R:3 energy=-412408.458091 pbc="T T T"
Ba       0.00000000       0.00000000       0.00000000 
Te       3.43100000       3.43100000       3.43100000 
2
Lattice="0.0 2.0025 2.0025 2.0025 0.0 2.0025 2.0025 2.0025 0.0" Properties=species:S:1:pos:R:3 energy=-8902.57119749 pbc="T T T"
Si       0.00000000       0.00000000       0.00000000 
C       2.00250000       2.00250000       2.00250000 
2
Lattice="0.0 2.417 2.417 2.417 0.0 2.417 2.417 2.417 0.0" Properties=species:S:1:pos:R:3 energy=-66857.5935242 pbc="T T T"
Be       0.00000000       0.00000000       0.00000000 
Se       2.41700000       2.41700000       2.41700000 
2
Lattice="0.0 2.533 2.533 2.533 0.0 2.533 2.533 2.533 0.0" Properties=species:S:1:pos:R:3 energy=-89140.7234446 pbc="T T T"
Sr       0.00000000       0.00000000       0.00000000 
O       2.53300000       2.53300000       2.53300000 
2
Lattice="0.0 2.483 2.483 2.483 0.0 2.483 2.483 2.483 0.0" Properties=species:S:1:pos:R:3 energy=-59891.7787462 pbc="T T T"
Zn       0.00000000       0.00000000       0.00000000 
S       2.48300000       2.48300000       2.48300000 
2
Lattice="0.0 2.6685 2.6685 2.6685 0.0 2.6685 2.6685 2.6685 0.0" Properties=species:S:1:pos:R:3 energy=-164841.126723 pbc="T T T"
Cd       0.00000000       0.00000000       0.00000000 
S       2.66850000       2.66850000       2.66850000 
2
Lattice="0.0 3.1045 3.1045 3.1045 0.0 3.1045 3.1045 3.1045 0.0" Properties=species:S:1:pos:R:3 energy=-205951.392238 pbc="T T T"
Ca       0.00000000       0.00000000       0.00000000 
Te       3.10450000       3.10450000       3.10450000 
2
Lattice="0.0 2.7695 2.7695 2.7695 0.0 2.7695 2.7695 2.7695 0.0" Properties=species:S:1:pos:R:3 energy=-178088.990806 pbc="T T T"
Sn       0.00000000       0.00000000       0.00000000 
Si       2.76950000       2.76950000       2.76950000 
2
Lattice="0.0 2.2785 2.2785 2.2785 0.0 2.2785 2.2785 2.2785 0.0" Properties=species:S:1:pos:R:3 energy=-11245.031079 pbc="T T T"
Be       0.00000000       0.00000000       0.00000000 
S       2.27850000       2.27850000       2.27850000 
2
Lattice="0.0 2.8225 2.8225 2.8225 0.0 2.8225 2.8225 2.8225 0.0" Properties=species:S:1:pos:R:3 energy=-231803.965497 pbc="T T T"
Ga       0.00000000       0.00000000       0.00000000 
Sb       2.82250000       2.82250000       2.82250000 
2
Lattice="0.0 2.6775 2.6775 2.6775 0.0 2.6775 2.6775 2.6775 0.0" Properties=species:S:1:pos:R:3 energy=-158794.902165 pbc="T T T"
Ag       0.00000000       0.00000000       0.00000000 
Cl       2.67750000       2.67750000       2.67750000 
2
Lattice="0.0 2.5245 2.5245 2.5245 0.0 2.5245 2.5245 2.5245 0.0" Properties=species:S:1:pos:R:3 energy=-62396.7110318 pbc="T T T"
Ga       0.00000000       0.00000000       0.00000000 
P       2.52450000       2.52450000       2.52450000 
2
Lattice="0.0 3.186 3.186 3.186 0.0 3.186 3.186 3.186 0.0" Properties=species:S:1:pos:R:3 energy=-87692.4563721 pbc="T T T"
K       0.00000000       0.00000000       0.00000000 
Br       3.18600000       3.18600000       3.18600000 
2
Lattice="0.0 1.9555 1.9555 1.9555 0.0 1.9555 1.9555 1.9555 0.0" Properties=species:S:1:pos:R:3 energy=-2910.48446171 pbc="T T T"
Li       0.00000000       0.00000000       0.00000000 
F       1.95550000       1.95550000       1.95550000 
2
Lattice="0.0 2.4975 2.4975 2.4975 0.0 2.4975 2.4975 2.4975 0.0" Properties=species:S:1:pos:R:3 energy=-15747.7943246 pbc="T T T"
Si       0.00000000       0.00000000       0.00000000 
Si       2.49750000       2.49750000       2.49750000 
2
Lattice="0.0 2.7925 2.7925 2.7925 0.0 2.7925 2.7925 2.7925 0.0" Properties=species:S:1:pos:R:3 energy=-217562.667917 pbc="T T T"
Ag       0.00000000       0.00000000       0.00000000 
Br       2.79250000       2.79250000       2.79250000 
2
Lattice="0.0 2.4655 2.4655 2.4655 0.0 2.4655 2.4655 2.4655 0.0" Properties=species:S:1:pos:R:3 energy=-179367.227403 pbc="T T T"
B       0.00000000       0.00000000       0.00000000 
Sb       2.46550000       2.46550000       2.46550000 
2
Lattice="0.0 2.893 2.893 2.893 0.0 2.893 2.893 2.893 0.0" Properties=species:S:1:pos:R:3 energy=-75718.2521669 pbc="T T T"
Na       0.00000000       0.00000000       0.00000000 
Br       2.89300000       2.89300000       2.89300000 
2
Lattice="0.0 2.627 2.627 2.627 0.0 2.627 2.627 2.627 0.0" Properties=species:S:1:pos:R:3 energy=-114915.359916 pbc="T T T"
Ga       0.00000000       0.00000000       0.00000000 
As       2.62700000       2.62700000       2.62700000 
2
Lattice="0.0 2.1985 2.1985 2.1985 0.0 2.1985 2.1985 2.1985 0.0" Properties=species:S:1:pos:R:3 energy=-47879.921682 pbc="T T T"
Cu       0.00000000       0.00000000       0.00000000 
F       2.19850000       2.19850000       2.19850000 
2
Lattice="0.0 3.2375 3.2375 3.2375 0.0 3.2375 3.2375 3.2375 0.0" Properties=species:S:1:pos:R:3 energy=-291433.539344 pbc="T T T"
Ba       0.00000000       0.00000000       0.00000000 
Se       3.23750000       3.23750000       3.23750000 
2
Lattice="0.0 2.252 2.252 2.252 0.0 2.252 2.252 2.252 0.0" Properties=species:S:1:pos:R:3 energy=-7111.68681205 pbc="T T T"
Na       0.00000000       0.00000000       0.00000000 
F       2.25200000       2.25200000       2.25200000 
2
Lattice="0.0 3.5105 3.5105 3.5105 0.0 3.5105 3.5105 3.5105 0.0" Properties=species:S:1:pos:R:3 energy=-286508.868675 pbc="T T T"
Cs       0.00000000       0.00000000       0.00000000 
Br       3.51050000       3.51050000       3.51050000 
2
Lattice="0.0 2.7325 2.7325 2.7325 0.0 2.7325 2.7325 2.7325 0.0" Properties=species:S:1:pos:R:3 energy=-16950.7468688 pbc="T T T"
Na       0.00000000       0.00000000       0.00000000 
Cl       2.73250000       2.73250000       2.73250000 
2
Lattice="0.0 1.748 1.748 1.748 0.0 1.748 1.748 1.748 0.0" Properties=species:S:1:pos:R:3 energy=-2053.09764055 pbc="T T T"
C       0.00000000       0.00000000       0.00000000 
C       1.74800000       1.74800000       1.74800000 
2
Lattice="0.0 3.13 3.13 3.13 0.0 3.13 3.13 3.13 0.0" Properties=species:S:1:pos:R:3 energy=-200833.632463 pbc="T T T"
Na       0.00000000       0.00000000       0.00000000 
I       3.13000000       3.13000000       3.13000000 
2
Lattice="0.0 1.731 1.731 1.731 0.0 1.731 1.731 1.731 0.0" Properties=species:S:1:pos:R:3 energy=-2150.06683059 pbc="T T T"
B       0.00000000       0.00000000       0.00000000 
N       1.73100000       1.73100000       1.73100000 
2
Lattice="0.0 2.091 2.091 2.091 0.0 2.091 2.091 2.091 0.0" Properties=species:S:1:pos:R:3 energy=-54585.9278914 pbc="T T T"
Ga       0.00000000       0.00000000       0.00000000 
N       2.09100000       2.09100000       2.09100000 
2
Lattice="0.0 2.8965 2.8965 2.8965 0.0 2.8965 2.8965 2.8965 0.0" Properties=species:S:1:pos:R:3 energy=-84976.7058404 pbc="T T T"
Ca       0.00000000       0.00000000       0.00000000 
Se       2.89650000       2.89650000       2.89650000 
2
Lattice="0.0 2.7815 2.7815 2.7815 0.0 2.7815 2.7815 2.7815 0.0" Properties=species:S:1:pos:R:3 energy=-220454.122522 pbc="T T T"
Cd       0.00000000       0.00000000       0.00000000 
Se       2.78150000       2.78150000       2.78150000 
2
Lattice="0.0 3.062 3.062 3.062 0.0 3.062 3.062 3.062 0.0" Properties=species:S:1:pos:R:3 energy=-153564.176858 pbc="T T T"
Sr       0.00000000       0.00000000       0.00000000 
Se       3.06200000       3.06200000       3.06200000 
2
Lattice="0.0 3.039 3.039 3.039 0.0 3.039 3.039 3.039 0.0" Properties=species:S:1:pos:R:3 energy=-28924.8889434 pbc="T T T"
K       0.00000000       0.00000000       0.00000000 
Cl       3.03900000       3.03900000       3.03900000 
2
Lattice="0.0 2.607 2.607 2.607 0.0 2.607 2.607 2.607 0.0" Properties=species:S:1:pos:R:3 energy=-115504.639751 pbc="T T T"
Zn       0.00000000       0.00000000       0.00000000 
Se       2.60700000       2.60700000       2.60700000 
2
Lattice="0.0 2.318 2.318 2.318 0.0 2.318 2.318 2.318 0.0" Properties=species:S:1:pos:R:3 energy=-156030.336619 pbc="T T T"
Cd       0.00000000       0.00000000       0.00000000 
O       2.31800000       2.31800000       2.31800000 
2
Lattice="0.0 2.7985 2.7985 2.7985 0.0 2.7985 2.7985 2.7985 0.0" Properties=species:S:1:pos:R:3 energy=-236479.615351 pbc="T T T"
Zn       0.00000000       0.00000000       0.00000000 
Te       2.79850000       2.79850000       2.79850000 
2
Lattice="0.0 2.13 2.13 2.13 0.0 2.13 2.13 2.13 0.0" Properties=species:S:1:pos:R:3 energy=-9960.54483976 pbc="T T T"
B       0.00000000       0.00000000       0.00000000 
P       2.13000000       2.13000000       2.13000000 
2
Lattice="0.0 2.03987 2.03987 2.03987 0.0 2.03987 2.03987 2.03987 0.0" Properties=species:S:1:pos:R:3 energy=-7474.14948988 pbc="T T T"
Mg       0.00000000       0.00000000       0.00000000 
O       2.03987000       2.03987000       2.03987000 
2
Lattice="0.0 2.483 2.483 2.483 0.0 2.483 2.483 2.483 0.0" Properties=species:S:1:pos:R:3 energy=-12749.0856426 pbc="T T T"
Li       0.00000000       0.00000000       0.00000000 
Cl       2.48300000       2.48300000       2.48300000 
2
Lattice="0.0 2.4645 2.4645 2.4645 0.0 2.4645 2.4645 2.4645 0.0" Properties=species:S:1:pos:R:3 energy=-57719.8939211 pbc="T T T"
Cu       0.00000000       0.00000000       0.00000000 
Cl       2.46450000       2.46450000       2.46450000 
2
Lattice="0.0 2.2695 2.2695 2.2695 0.0 2.2695 2.2695 2.2695 0.0" Properties=species:S:1:pos:R:3 energy=-62478.6946883 pbc="T T T"
B       0.00000000       0.00000000       0.00000000 
As       2.26950000       2.26950000       2.26950000 
2
Lattice="0.0 2.302 2.302 2.302 0.0 2.302 2.302 2.302 0.0" Properties=species:S:1:pos:R:3 energy=-163461.42957 pbc="T T T"
In       0.00000000       0.00000000       0.00000000 
N       2.30200000       2.30200000       2.30200000 
2
Lattice="0.0 3.552 3.552 3.552 0.0 3.552 3.552 3.552 0.0" Properties=species:S:1:pos:R:3 energy=-278062.850826 pbc="T T T"
Rb       0.00000000       0.00000000       0.00000000 
I       3.55200000       3.55200000       3.55200000 
2
Lattice="0.0 2.798 2.798 2.798 0.0 2.798 2.798 2.798 0.0" Properties=species:S:1:pos:R:3 energy=-223791.57451 pbc="T T T"
In       0.00000000       0.00000000       0.00000000 
As       2.79800000       2.79800000       2.79800000 
2
Lattice="0.0 2.355 2.355 2.355 0.0 2.355 2.355 2.355 0.0" Properties=species:S:1:pos:R:3 energy=-171242.070817 pbc="T T T"
Sn       0.00000000       0.00000000       0.00000000 
C       2.35500000       2.35500000       2.35500000 
2
Lattice="0.0 3.1355 3.1355 3.1355 0.0 3.1355 3.1355 3.1355 0.0" Properties=species:S:1:pos:R:3 energy=-235820.54188 pbc="T T T"
Ba       0.00000000       0.00000000       0.00000000 
S       3.13550000       3.13550000       3.13550000 
2
Lattice="0.0 2.566 2.566 2.566 0.0 2.566 2.566 2.566 0.0" Properties=species:S:1:pos:R:3 energy=-16283.1867661 pbc="T T T"
Mg       0.00000000       0.00000000       0.00000000 
S       2.56600000       2.56600000       2.56600000 
2
Lattice="0.0 2.9485 2.9485 2.9485 0.0 2.9485 2.9485 2.9485 0.0" Properties=species:S:1:pos:R:3 energy=-342678.416363 pbc="T T T"
Ag       0.00000000       0.00000000       0.00000000 
I       2.94850000       2.94850000       2.94850000 
2
Lattice="0.0 2.3955 2.3955 2.3955 0.0 2.3955 2.3955 2.3955 0.0" Properties=species:S:1:pos:R:3 energy=-148954.85633 pbc="T T T"
Ag       0.00000000       0.00000000       0.00000000 
F       2.39550000       2.39550000       2.39550000 
2
Lattice="0.0 2.0045 2.0045 2.0045 0.0 2.0045 2.0045 2.0045 0.0" Properties=species:S:1:pos:R:3 energy=-8072.85809701 pbc="T T T"
Al       0.00000000       0.00000000       0.00000000 
N       2.00450000       2.00450000       2.00450000 
2
Lattice="0.0 3.189 3.189 3.189 0.0 3.189 3.189 3.189 0.0" Properties=species:S:1:pos:R:3 energy=-94179.785846 pbc="T T T"
Rb       0.00000000       0.00000000       0.00000000 
Cl       3.18900000       3.18900000       3.18900000 
2
Lattice="0.0 2.9025 2.9025 2.9025 0.0 2.9025 2.9025 2.9025 0.0" Properties=species:S:1:pos:R:3 energy=-217901.777698 pbc="T T T"
Cs       0.00000000       0.00000000       0.00000000 
F       2.90250000       2.90250000       2.90250000 
2
Lattice="0.0 2.7605 2.7605 2.7605 0.0 2.7605 2.7605 2.7605 0.0" Properties=species:S:1:pos:R:3 energy=-241603.237416 pbc="T T T"
Cu       0.00000000       0.00000000       0.00000000 
I       2.76050000       2.76050000       2.76050000 
2
Lattice="0.0 2.718 2.718 2.718 0.0 2.718 2.718 2.718 0.0" Properties=species:S:1:pos:R:3 energy=-227009.653927 pbc="T T T"
Ba       0.00000000       0.00000000       0.00000000 
O       2.71800000       2.71800000       2.71800000 
2
Lattice="0.0 2.9215 2.9215 2.9215 0.0 2.9215 2.9215 2.9215 0.0" Properties=species:S:1:pos:R:3 energy=-192870.476707 pbc="T T T"
Mg       0.00000000       0.00000000       0.00000000 
Te       2.92150000       2.92150000       2.92150000 
2
Lattice="0.0 2.828 2.828 2.828 0.0 2.828 2.828 2.828 0.0" Properties=species:S:1:pos:R:3 energy=-227574.900574 pbc="T T T"
Sn       0.00000000       0.00000000       0.00000000 
Ge       2.82800000       2.82800000       2.82800000 
2
Lattice="0.0 2.593 2.593 2.593 0.0 2.593 2.593 2.593 0.0" Properties=species:S:1:pos:R:3 energy=-116487.545672 pbc="T T T"
Cu       0.00000000       0.00000000       0.00000000 
Br       2.59300000       2.59300000       2.59300000 
2
Lattice="0.0 2.6335 2.6335 2.6335 0.0 2.6335 2.6335 2.6335 0.0" Properties=species:S:1:pos:R:3 energy=-187832.208372 pbc="T T T"
Be       0.00000000       0.00000000       0.00000000 
Te       2.63350000       2.63350000       2.63350000 
2
Lattice="0.0 2.156 2.156 2.156 0.0 2.156 2.156 2.156 0.0" Properties=species:S:1:pos:R:3 energy=-58386.5569503 pbc="T T T"
Ge       0.00000000       0.00000000       0.00000000 
C       2.15600000       2.15600000       2.15600000 
2
Lattice="0.0 3.0045 3.0045 3.0045 0.0 3.0045 3.0045 3.0045 0.0" Properties=species:S:1:pos:R:3 energy=-340430.701184 pbc="T T T"
Sn       0.00000000       0.00000000       0.00000000 
Sn       3.00450000       3.00450000       3.00450000 
2
Lattice="0.0 2.606 2.606 2.606 0.0 2.606 2.606 2.606 0.0" Properties=species:S:1:pos:R:3 energy=-68400.1550255 pbc="T T T"
Al       0.00000000       0.00000000       0.00000000 
As       2.60600000       2.60600000       2.60600000 
2
Lattice="0.0 2.953 2.953 2.953 0.0 2.953 2.953 2.953 0.0" Properties=species:S:1:pos:R:3 energy=-97951.2711666 pbc="T T T"
Sr       0.00000000       0.00000000       0.00000000 
S       2.95300000       2.95300000       2.95300000 
2
Lattice="0.0 2.732 2.732 2.732 0.0 2.732 2.732 2.732 0.0" Properties=species:S:1:pos:R:3 energy=-84340.367318 pbc="T T T"
Rb       0.00000000       0.00000000       0.00000000 
F       2.73200000       2.73200000       2.73200000 
2
Lattice="0.0 2.57 2.57 2.57 0.0 2.57 2.57 2.57 0.0" Properties=species:S:1:pos:R:3 energy=-65233.3880778 pbc="T T T"
Ge       0.00000000       0.00000000       0.00000000 
Si       2.57000000       2.57000000       2.57000000 
2
Lattice="0.0 2.7075 2.7075 2.7075 0.0 2.7075 2.7075 2.7075 0.0" Properties=species:S:1:pos:R:3 energy=-171272.823993 pbc="T T T"
In       0.00000000       0.00000000       0.00000000 
P       2.70750000       2.70750000       2.70750000 
2
Lattice="0.0 2.106 2.106 2.106 0.0 2.106 2.106 2.106 0.0" Properties=species:S:1:pos:R:3 energy=-51081.6184094 pbc="T T T"
Zn       0.00000000       0.00000000       0.00000000 
O       2.10600000       2.10600000       2.10600000 
2
Lattice="0.0 3.727 3.727 3.727 0.0 3.727 3.727 3.727 0.0" Properties=species:S:1:pos:R:3 energy=-411624.365714 pbc="T T T"
Cs       0.00000000       0.00000000       0.00000000 
I       3.72700000       3.72700000       3.72700000 
2
Lattice="0.0 2.6975 2.6975 2.6975 0.0 2.6975 2.6975 2.6975 0.0" Properties=species:S:1:pos:R:3 energy=-71895.8800617 pbc="T T T"
Mg       0.00000000       0.00000000       0.00000000 
Se       2.69750000       2.69750000       2.69750000 
2
Lattice="0.0 2.5815 2.5815 2.5815 0.0 2.5815 2.5815 2.5815 0.0" Properties=species:S:1:pos:R:3 energy=-19085.5557541 pbc="T T T"
K       0.00000000       0.00000000       0.00000000 
F       2.58150000       2.58150000       2.58150000 
2
Lattice="0.0 2.499 2.499 2.499 0.0 2.499 2.499 2.499 0.0" Properties=species:S:1:pos:R:3 energy=-15881.7254904 pbc="T T T"
Al       0.00000000       0.00000000       0.00000000 
P       2.49900000       2.49900000       2.49900000 
2
Lattice="0.0 3.408 3.408 3.408 0.0 3.408 3.408 3.408 0.0" Properties=species:S:1:pos:R:3 energy=-212807.899794 pbc="T T T"
K       0.00000000       0.00000000       0.00000000 
I       3.40800000       3.40800000       3.40800000 
