2
Lattice="0.0 2.9655000000000005 2.9655000000000005 2.9655000000000005 0.0 2.9655000000000005 2.9655000000000005 2.9655000000000005 0.0" Properties=species:S:1:pos:R:3 energy=-341429.1786248588 pbc="T T T"
Cd       0.00000000       0.00000000       0.00000000 
Te       2.96550000       2.96550000       2.96550000 
2
Lattice="0.0 2.6555000000000004 2.6555000000000004 2.6555000000000004 0.0 2.6555000000000004 2.6555000000000004 2.6555000000000004 0.0" Properties=species:S:1:pos:R:3 energy=-71516.50807337083 pbc="T T T"
Li       0.00000000       0.00000000       0.00000000 
Br       2.65550000       2.65550000       2.65550000 
2
Lattice="0.0 3.3335 3.3335 3.3335 0.0 3.3335 3.3335 3.3335 0.0" Properties=species:S:1:pos:R:3 energy=-152947.3787853323 pbc="T T T"
Rb       0.00000000       0.00000000       0.00000000 
Br       3.33350000       3.33350000       3.33350000 
2
Lattice="0.0 3.365 3.365 3.365 0.0 3.365 3.365 3.365 0.0" Properties=species:S:1:pos:R:3 energy=-227741.2524208612 pbc="T T T"
Cs       0.00000000       0.00000000       0.00000000 
Cl       3.36500000       3.36500000       3.36500000 
2
Lattice="0.0 2.6455 2.6455 2.6455 0.0 2.6455 2.6455 2.6455 0.0" Properties=species:S:1:pos:R:3 energy=-114719.12240833876 pbc="T T T"
Ge       0.00000000       0.00000000       0.00000000 
Ge       2.64550000       2.64550000       2.64550000 
2
Lattice="0.0 2.988 2.988 2.988 0.0 2.988 2.988 2.988 0.0" Properties=species:S:1:pos:R:3 energy=-340680.20721259696 pbc="T T T"
In       0.00000000       0.00000000       0.00000000 
Sb       2.98800000       2.98800000       2.98800000 
2
Lattice="0.0 2.9025 2.9025 2.9025 0.0 2.9025 2.9025 2.9025 0.0" Properties=species:S:1:pos:R:3 energy=-196631.81008493344 pbc="T T T"
Li       0.00000000       0.00000000       0.00000000 
I       2.90250000       2.90250000       2.90250000 
2
Lattice="0.0 2.7825000000000006 2.7825000000000006 2.7825000000000006 0.0 2.7825000000000006 2.7825000000000006 2.7825000000000006 0.0" Properties=species:S:1:pos:R:3 energy=-29363.893482069998 pbc="T T T"
Ca       0.00000000       0.00000000       0.00000000 
S       2.78250000       2.78250000       2.78250000 
2
Lattice="0.0 3.2635 3.2635 3.2635 0.0 3.2635 3.2635 3.2635 0.0" Properties=species:S:1:pos:R:3 energy=-274538.97429487604 pbc="T T T"
Sr       0.00000000       0.00000000       0.00000000 
Te       3.26350000       3.26350000       3.26350000 
2
Lattice="0.0 1.792 1.792 1.792 0.0 1.792 1.792 1.792 0.0" Properties=species:S:1:pos:R:3 energy=-2436.879916927028 pbc="T T T"
Be       0.00000000       0.00000000       0.00000000 
O       1.79200000       1.79200000       1.79200000 
2
Lattice="0.0 2.355 2.355 2.355 0.0 2.355 2.355 2.355 0.0" Properties=species:S:1:pos:R:3 energy=-20553.80217044706 pbc="T T T"
Ca       0.00000000       0.00000000       0.00000000 
O       2.35500000       2.35500000       2.35500000 
2
Lattice="0.0 2.824 2.824 2.824 0.0 2.824 2.824 2.824 0.0" Properties=species:S:1:pos:R:3 energy=-185288.38400876973 pbc="T T T"
Al       0.00000000       0.00000000       0.00000000 
Sb       2.82400000       2.82400000       2.82400000 
2
Lattice="0.0 3.4310000000000005 3.4310000000000005 3.4310000000000005 0.0 3.4310000000000005 3.4310000000000005 3.4310000000000005 0.0" Properties=species:S:1:pos:R:3 energy=-412408.4580907384 pbc="T T T"
Ba       0.00000000       0.00000000       0.00000000 
Te       3.43100000       3.43100000       3.43100000 
2
Lattice="0.0 2.0025 2.0025 2.0025 0.0 2.0025 2.0025 2.0025 0.0" Properties=species:S:1:pos:R:3 energy=-8902.571197491548 pbc="T T T"
Si       0.00000000       0.00000000       0.00000000 
C       2.00250000       2.00250000       2.00250000 
2
Lattice="0.0 2.417 2.417 2.417 0.0 2.417 2.417 2.417 0.0" Properties=species:S:1:pos:R:3 energy=-66857.5935241993 pbc="T T T"
Be       0.00000000       0.00000000       0.00000000 
Se       2.41700000       2.41700000       2.41700000 
2
Lattice="0.0 2.533 2.533 2.533 0.0 2.533 2.533 2.533 0.0" Properties=species:S:1:pos:R:3 energy=-89140.72344457162 pbc="T T T"
Sr       0.00000000       0.00000000       0.00000000 
O       2.53300000       2.53300000       2.53300000 
2
Lattice="0.0 2.483 2.483 2.483 0.0 2.483 2.483 2.483 0.0" Properties=species:S:1:pos:R:3 energy=-59891.778746184464 pbc="T T T"
Zn       0.00000000       0.00000000       0.00000000 
S       2.48300000       2.48300000       2.48300000 
2
Lattice="0.0 2.6685000000000003 2.6685000000000003 2.6685000000000003 0.0 2.6685000000000003 2.6685000000000003 2.6685000000000003 0.0" Properties=species:S:1:pos:R:3 energy=-164841.12672348632 pbc="T T T"
Cd       0.00000000       0.00000000       0.00000000 
S       2.66850000       2.66850000       2.66850000 
2
Lattice="0.0 3.1045 3.1045 3.1045 0.0 3.1045 3.1045 3.1045 0.0" Properties=species:S:1:pos:R:3 energy=-205951.39223783955 pbc="T T T"
Ca       0.00000000       0.00000000       0.00000000 
Te       3.10450000       3.10450000       3.10450000 
2
Lattice="0.0 2.7695000000000003 2.7695000000000003 2.7695000000000003 0.0 2.7695000000000003 2.7695000000000003 2.7695000000000003 0.0" Properties=species:S:1:pos:R:3 energy=-178088.99080638788 pbc="T T T"
Sn       0.00000000       0.00000000       0.00000000 
Si       2.76950000       2.76950000       2.76950000 
2
Lattice="0.0 2.2785 2.2785 2.2785 0.0 2.2785 2.2785 2.2785 0.0" Properties=species:S:1:pos:R:3 energy=-11245.031078986694 pbc="T T T"
Be       0.00000000       0.00000000       0.00000000 
S       2.27850000       2.27850000       2.27850000 
2
Lattice="0.0 2.8225 2.8225 2.8225 0.0 2.8225 2.8225 2.8225 0.0" Properties=species:S:1:pos:R:3 energy=-231803.96549727672 pbc="T T T"
Ga       0.00000000       0.00000000       0.00000000 
Sb       2.82250000       2.82250000       2.82250000 
2
Lattice="0.0 2.6775 2.6775 2.6775 0.0 2.6775 2.6775 2.6775 0.0" Properties=species:S:1:pos:R:3 energy=-158794.90216548304 pbc="T T T"
Ag       0.00000000       0.00000000       0.00000000 
Cl       2.67750000       2.67750000       2.67750000 
2
Lattice="0.0 2.5245000000000006 2.5245000000000006 2.5245000000000006 0.0 2.5245000000000006 2.5245000000000006 2.5245000000000006 0.0" Properties=species:S:1:pos:R:3 energy=-62396.71103182768 pbc="T T T"
Ga       0.00000000       0.00000000       0.00000000 
P       2.52450000       2.52450000       2.52450000 
2
Lattice="0.0 3.186 3.186 3.186 0.0 3.186 3.186 3.186 0.0" Properties=species:S:1:pos:R:3 energy=-87692.45637212302 pbc="T T T"
K       0.00000000       0.00000000       0.00000000 
Br       3.18600000       3.18600000       3.18600000 
2
Lattice="0.0 1.9555 1.9555 1.9555 0.0 1.9555 1.9555 1.9555 0.0" Properties=species:S:1:pos:R:3 energy=-2910.484461708013 pbc="T T T"
Li       0.00000000       0.00000000       0.00000000 
F       1.95550000       1.95550000       1.95550000 
2
Lattice="0.0 2.4975 2.4975 2.4975 0.0 2.4975 2.4975 2.4975 0.0" Properties=species:S:1:pos:R:3 energy=-15747.794324639632 pbc="T T T"
Si       0.00000000       0.00000000       0.00000000 
Si       2.49750000       2.49750000       2.49750000 
2
Lattice="0.0 2.7925 2.7925 2.7925 0.0 2.7925 2.7925 2.7925 0.0" Properties=species:S:1:pos:R:3 energy=-217562.66791714224 pbc="T T T"
Ag       0.00000000       0.00000000       0.00000000 
Br       2.79250000       2.79250000       2.79250000 
2
Lattice="0.0 2.4655 2.4655 2.4655 0.0 2.4655 2.4655 2.4655 0.0" Properties=species:S:1:pos:R:3 energy=-179367.22740282805 pbc="T T T"
B       0.00000000       0.00000000       0.00000000 
Sb       2.46550000       2.46550000       2.46550000 
2
Lattice="0.0 2.893 2.893 2.893 0.0 2.893 2.893 2.893 0.0" Properties=species:S:1:pos:R:3 energy=-75718.25216691087 pbc="T T T"
Na       0.00000000       0.00000000       0.00000000 
Br       2.89300000       2.89300000       2.89300000 
2
Lattice="0.0 2.627 2.627 2.627 0.0 2.627 2.627 2.627 0.0" Properties=species:S:1:pos:R:3 energy=-114915.35991574956 pbc="T T T"
Ga       0.00000000       0.00000000       0.00000000 
As       2.62700000       2.62700000       2.62700000 
2
Lattice="0.0 2.1985 2.1985 2.1985 0.0 2.1985 2.1985 2.1985 0.0" Properties=species:S:1:pos:R:3 energy=-47879.92168195353 pbc="T T T"
Cu       0.00000000       0.00000000       0.00000000 
F       2.19850000       2.19850000       2.19850000 
2
Lattice="0.0 3.2375 3.2375 3.2375 0.0 3.2375 3.2375 3.2375 0.0" Properties=species:S:1:pos:R:3 energy=-291433.53934422013 pbc="T T T"
Ba       0.00000000       0.00000000       0.00000000 
Se       3.23750000       3.23750000       3.23750000 
2
Lattice="0.0 2.252 2.252 2.252 0.0 2.252 2.252 2.252 0.0" Properties=species:S:1:pos:R:3 energy=-7111.686812050221 pbc="T T T"
Na       0.00000000       0.00000000       0.00000000 
F       2.25200000       2.25200000       2.25200000 
2
Lattice="0.0 3.5105 3.5105 3.5105 0.0 3.5105 3.5105 3.5105 0.0" Properties=species:S:1:pos:R:3 energy=-286508.8686748698 pbc="T T T"
Cs       0.00000000       0.00000000       0.00000000 
Br       3.51050000       3.51050000       3.51050000 
2
Lattice="0.0 2.7325 2.7325 2.7325 0.0 2.7325 2.7325 2.7325 0.0" Properties=species:S:1:pos:R:3 energy=-16950.7468688131 pbc="T T T"
Na       0.00000000       0.00000000       0.00000000 
Cl       2.73250000       2.73250000       2.73250000 
2
Lattice="0.0 1.748 1.748 1.748 0.0 1.748 1.748 1.748 0.0" Properties=species:S:1:pos:R:3 energy=-2053.0976405493834 pbc="T T T"
C       0.00000000       0.00000000       0.00000000 
C       1.74800000       1.74800000       1.74800000 
2
Lattice="0.0 3.13 3.13 3.13 0.0 3.13 3.13 3.13 0.0" Properties=species:S:1:pos:R:3 energy=-200833.63246252656 pbc="T T T"
Na       0.00000000       0.00000000       0.00000000 
I       3.13000000       3.13000000       3.13000000 
2
Lattice="0.0 1.7310000000000003 1.7310000000000003 1.7310000000000003 0.0 1.7310000000000003 1.7310000000000003 1.7310000000000003 0.0" Properties=species:S:1:pos:R:3 energy=-2150.0668305862523 pbc="T T T"
B       0.00000000       0.00000000       0.00000000 
N       1.73100000       1.73100000       1.73100000 
2
Lattice="0.0 2.091 2.091 2.091 0.0 2.091 2.091 2.091 0.0" Properties=species:S:1:pos:R:3 energy=-54585.92789135749 pbc="T T T"
Ga       0.00000000       0.00000000       0.00000000 
N       2.09100000       2.09100000       2.09100000 
2
Lattice="0.0 2.8965 2.8965 2.8965 0.0 2.8965 2.8965 2.8965 0.0" Properties=species:S:1:pos:R:3 energy=-84976.705840401 pbc="T T T"
Ca       0.00000000       0.00000000       0.00000000 
Se       2.89650000       2.89650000       2.89650000 
2
Lattice="0.0 2.7815000000000003 2.7815000000000003 2.7815000000000003 0.0 2.7815000000000003 2.7815000000000003 2.7815000000000003 0.0" Properties=species:S:1:pos:R:3 energy=-220454.12252165613 pbc="T T T"
Cd       0.00000000       0.00000000       0.00000000 
Se       2.78150000       2.78150000       2.78150000 
2
Lattice="0.0 3.062 3.062 3.062 0.0 3.062 3.062 3.062 0.0" Properties=species:S:1:pos:R:3 energy=-153564.17685809752 pbc="T T T"
Sr       0.00000000       0.00000000       0.00000000 
Se       3.06200000       3.06200000       3.06200000 
2
Lattice="0.0 3.039 3.039 3.039 0.0 3.039 3.039 3.039 0.0" Properties=species:S:1:pos:R:3 energy=-28924.88894336972 pbc="T T T"
K       0.00000000       0.00000000       0.00000000 
Cl       3.03900000       3.03900000       3.03900000 
2
Lattice="0.0 2.607 2.607 2.607 0.0 2.607 2.607 2.607 0.0" Properties=species:S:1:pos:R:3 energy=-115504.63975095734 pbc="T T T"
Zn       0.00000000       0.00000000       0.00000000 
Se       2.60700000       2.60700000       2.60700000 
2
Lattice="0.0 2.318 2.318 2.318 0.0 2.318 2.318 2.318 0.0" Properties=species:S:1:pos:R:3 energy=-156030.33661892678 pbc="T T T"
Cd       0.00000000       0.00000000       0.00000000 
O       2.31800000       2.31800000       2.31800000 
2
Lattice="0.0 2.7985 2.7985 2.7985 0.0 2.7985 2.7985 2.7985 0.0" Properties=species:S:1:pos:R:3 energy=-236479.61535123116 pbc="T T T"
Zn       0.00000000       0.00000000       0.00000000 
Te       2.79850000       2.79850000       2.79850000 
2
Lattice="0.0 2.13 2.13 2.13 0.0 2.13 2.13 2.13 0.0" Properties=species:S:1:pos:R:3 energy=-9960.544839755441 pbc="T T T"
B       0.00000000       0.00000000       0.00000000 
P       2.13000000       2.13000000       2.13000000 
2
Lattice="0.0 2.03987 2.03987 2.03987 0.0 2.03987 2.03987 2.03987 0.0" Properties=species:S:1:pos:R:3 energy=-7474.149489880219 pbc="T T T"
Mg       0.00000000       0.00000000       0.00000000 
O       2.03987000       2.03987000       2.03987000 
2
Lattice="0.0 2.483 2.483 2.483 0.0 2.483 2.483 2.483 0.0" Properties=species:S:1:pos:R:3 energy=-12749.085642623091 pbc="T T T"
Li       0.00000000       0.00000000       0.00000000 
Cl       2.48300000       2.48300000       2.48300000 
2
Lattice="0.0 2.4645 2.4645 2.4645 0.0 2.4645 2.4645 2.4645 0.0" Properties=species:S:1:pos:R:3 energy=-57719.89392108683 pbc="T T T"
Cu       0.00000000       0.00000000       0.00000000 
Cl       2.46450000       2.46450000       2.46450000 
2
Lattice="0.0 2.2695 2.2695 2.2695 0.0 2.2695 2.2695 2.2695 0.0" Properties=species:S:1:pos:R:3 energy=-62478.69468827663 pbc="T T T"
B       0.00000000       0.00000000       0.00000000 
As       2.26950000       2.26950000       2.26950000 
2
Lattice="0.0 2.302 2.302 2.302 0.0 2.302 2.302 2.302 0.0" Properties=species:S:1:pos:R:3 energy=-163461.42956951447 pbc="T T T"
In       0.00000000       0.00000000       0.00000000 
N       2.30200000       2.30200000       2.30200000 
2
Lattice="0.0 3.552 3.552 3.552 0.0 3.552 3.552 3.552 0.0" Properties=species:S:1:pos:R:3 energy=-278062.8508264436 pbc="T T T"
Rb       0.00000000       0.00000000       0.00000000 
I       3.55200000       3.55200000       3.55200000 
2
Lattice="0.0 2.798 2.798 2.798 0.0 2.798 2.798 2.798 0.0" Properties=species:S:1:pos:R:3 energy=-223791.57450953088 pbc="T T T"
In       0.00000000       0.00000000       0.00000000 
As       2.79800000       2.79800000       2.79800000 
2
Lattice="0.0 2.355 2.355 2.355 0.0 2.355 2.355 2.355 0.0" Properties=species:S:1:pos:R:3 energy=-171242.07081712334 pbc="T T T"
Sn       0.00000000       0.00000000       0.00000000 
C       2.35500000       2.35500000       2.35500000 
2
Lattice="0.0 3.1355000000000004 3.1355000000000004 3.1355000000000004 0.0 3.1355000000000004 3.1355000000000004 3.1355000000000004 0.0" Properties=species:S:1:pos:R:3 energy=-235820.54187986645 pbc="T T T"
Ba       0.00000000       0.00000000       0.00000000 
S       3.13550000       3.13550000       3.13550000 
2
Lattice="0.0 2.566 2.566 2.566 0.0 2.566 2.566 2.566 0.0" Properties=species:S:1:pos:R:3 energy=-16283.186766086706 pbc="T T T"
Mg       0.00000000       0.00000000       0.00000000 
S       2.56600000       2.56600000       2.56600000 
2
Lattice="0.0 2.9485 2.9485 2.9485 0.0 2.9485 2.9485 2.9485 0.0" Properties=species:S:1:pos:R:3 energy=-342678.41636289534 pbc="T T T"
Ag       0.00000000       0.00000000       0.00000000 
I       2.94850000       2.94850000       2.94850000 
2
Lattice="0.0 2.3955 2.3955 2.3955 0.0 2.3955 2.3955 2.3955 0.0" Properties=species:S:1:pos:R:3 energy=-148954.8563303272 pbc="T T T"
Ag       0.00000000       0.00000000       0.00000000 
F       2.39550000       2.39550000       2.39550000 
2
Lattice="0.0 2.0045 2.0045 2.0045 0.0 2.0045 2.0045 2.0045 0.0" Properties=species:S:1:pos:R:3 energy=-8072.8580970075345 pbc="T T T"
Al       0.00000000       0.00000000       0.00000000 
N       2.00450000       2.00450000       2.00450000 
2
Lattice="0.0 3.189 3.189 3.189 0.0 3.189 3.189 3.189 0.0" Properties=species:S:1:pos:R:3 energy=-94179.78584603727 pbc="T T T"
Rb       0.00000000       0.00000000       0.00000000 
Cl       3.18900000       3.18900000       3.18900000 
2
Lattice="0.0 2.9025 2.9025 2.9025 0.0 2.9025 2.9025 2.9025 0.0" Properties=species:S:1:pos:R:3 energy=-217901.77769766148 pbc="T T T"
Cs       0.00000000       0.00000000       0.00000000 
F       2.90250000       2.90250000       2.90250000 
2
Lattice="0.0 2.7605 2.7605 2.7605 0.0 2.7605 2.7605 2.7605 0.0" Properties=species:S:1:pos:R:3 energy=-241603.2374164997 pbc="T T T"
Cu       0.00000000       0.00000000       0.00000000 
I       2.76050000       2.76050000       2.76050000 
2
Lattice="0.0 2.718 2.718 2.718 0.0 2.718 2.718 2.718 0.0" Properties=species:S:1:pos:R:3 energy=-227009.65392669043 pbc="T T T"
Ba       0.00000000       0.00000000       0.00000000 
O       2.71800000       2.71800000       2.71800000 
2
Lattice="0.0 2.9215 2.9215 2.9215 0.0 2.9215 2.9215 2.9215 0.0" Properties=species:S:1:pos:R:3 energy=-192870.4767074374 pbc="T T T"
Mg       0.00000000       0.00000000       0.00000000 
Te       2.92150000       2.92150000       2.92150000 
2
Lattice="0.0 2.828 2.828 2.828 0.0 2.828 2.828 2.828 0.0" Properties=species:S:1:pos:R:3 energy=-227574.90057425594 pbc="T T T"
Sn       0.00000000       0.00000000       0.00000000 
Ge       2.82800000       2.82800000       2.82800000 
2
Lattice="0.0 2.5930000000000004 2.5930000000000004 2.5930000000000004 0.0 2.5930000000000004 2.5930000000000004 2.5930000000000004 0.0" Properties=species:S:1:pos:R:3 energy=-116487.54567204125 pbc="T T T"
Cu       0.00000000       0.00000000       0.00000000 
Br       2.59300000       2.59300000       2.59300000 
2
Lattice="0.0 2.6335 2.6335 2.6335 0.0 2.6335 2.6335 2.6335 0.0" Properties=species:S:1:pos:R:3 energy=-187832.20837219118 pbc="T T T"
Be       0.00000000       0.00000000       0.00000000 
Te       2.63350000       2.63350000       2.63350000 
2
Lattice="0.0 2.156 2.156 2.156 0.0 2.156 2.156 2.156 0.0" Properties=species:S:1:pos:R:3 energy=-58386.55695025545 pbc="T T T"
Ge       0.00000000       0.00000000       0.00000000 
C       2.15600000       2.15600000       2.15600000 
2
Lattice="0.0 3.0045 3.0045 3.0045 0.0 3.0045 3.0045 3.0045 0.0" Properties=species:S:1:pos:R:3 energy=-340430.7011844764 pbc="T T T"
Sn       0.00000000       0.00000000       0.00000000 
Sn       3.00450000       3.00450000       3.00450000 
2
Lattice="0.0 2.6060000000000003 2.6060000000000003 2.6060000000000003 0.0 2.6060000000000003 2.6060000000000003 2.6060000000000003 0.0" Properties=species:S:1:pos:R:3 energy=-68400.15502549248 pbc="T T T"
Al       0.00000000       0.00000000       0.00000000 
As       2.60600000       2.60600000       2.60600000 
2
Lattice="0.0 2.953 2.953 2.953 0.0 2.953 2.953 2.953 0.0" Properties=species:S:1:pos:R:3 energy=-97951.27116663936 pbc="T T T"
Sr       0.00000000       0.00000000       0.00000000 
S       2.95300000       2.95300000       2.95300000 
2
Lattice="0.0 2.7320000000000007 2.7320000000000007 2.7320000000000007 0.0 2.7320000000000007 2.7320000000000007 2.7320000000000007 0.0" Properties=species:S:1:pos:R:3 energy=-84340.3673180063 pbc="T T T"
Rb       0.00000000       0.00000000       0.00000000 
F       2.73200000       2.73200000       2.73200000 
2
Lattice="0.0 2.57 2.57 2.57 0.0 2.57 2.57 2.57 0.0" Properties=species:S:1:pos:R:3 energy=-65233.3880777757 pbc="T T T"
Ge       0.00000000       0.00000000       0.00000000 
Si       2.57000000       2.57000000       2.57000000 
2
Lattice="0.0 2.7075 2.7075 2.7075 0.0 2.7075 2.7075 2.7075 0.0" Properties=species:S:1:pos:R:3 energy=-171272.82399304523 pbc="T T T"
In       0.00000000       0.00000000       0.00000000 
P       2.70750000       2.70750000       2.70750000 
2
Lattice="0.0 2.106 2.106 2.106 0.0 2.106 2.106 2.106 0.0" Properties=species:S:1:pos:R:3 energy=-51081.61840942443 pbc="T T T"
Zn       0.00000000       0.00000000       0.00000000 
O       2.10600000       2.10600000       2.10600000 
2
Lattice="0.0 3.7270000000000003 3.7270000000000003 3.7270000000000003 0.0 3.7270000000000003 3.7270000000000003 3.7270000000000003 0.0" Properties=species:S:1:pos:R:3 energy=-411624.3657144802 pbc="T T T"
Cs       0.00000000       0.00000000       0.00000000 
I       3.72700000       3.72700000       3.72700000 
2
Lattice="0.0 2.6975 2.6975 2.6975 0.0 2.6975 2.6975 2.6975 0.0" Properties=species:S:1:pos:R:3 energy=-71895.88006169087 pbc="T T T"
Mg       0.00000000       0.00000000       0.00000000 
Se       2.69750000       2.69750000       2.69750000 
2
Lattice="0.0 2.5815 2.5815 2.5815 0.0 2.5815 2.5815 2.5815 0.0" Properties=species:S:1:pos:R:3 energy=-19085.555754119105 pbc="T T T"
K       0.00000000       0.00000000       0.00000000 
F       2.58150000       2.58150000       2.58150000 
2
Lattice="0.0 2.4990000000000006 2.4990000000000006 2.4990000000000006 0.0 2.4990000000000006 2.4990000000000006 2.4990000000000006 0.0" Properties=species:S:1:pos:R:3 energy=-15881.725490446743 pbc="T T T"
Al       0.00000000       0.00000000       0.00000000 
P       2.49900000       2.49900000       2.49900000 
2
Lattice="0.0 3.408 3.408 3.408 0.0 3.408 3.408 3.408 0.0" Properties=species:S:1:pos:R:3 energy=-212807.89979369735 pbc="T T T"
K       0.00000000       0.00000000       0.00000000 
I       3.40800000       3.40800000       3.40800000 
