2
Lattice="0.0 2.9765 2.9765 2.9765 0.0 2.9765 2.9765 2.9765 0.0" Properties=species:S:1:pos:R:3 energy=-178089.2610239861 pbc="T T T"
Sn       0.00000000       0.00000000       0.00000000 
Si       1.48825000       1.48825000       1.48825000 
2
Lattice="0.0 3.446 3.446 3.446 0.0 3.446 3.446 3.446 0.0" Properties=species:S:1:pos:R:3 energy=-200833.40278608218 pbc="T T T"
Na       0.00000000       0.00000000       0.00000000 
I       1.72300000       1.72300000       1.72300000 
2
Lattice="0.0 2.5930000000000004 2.5930000000000004 2.5930000000000004 0.0 2.5930000000000004 2.5930000000000004 2.5930000000000004 0.0" Properties=species:S:1:pos:R:3 energy=-179368.3891010568 pbc="T T T"
B       0.00000000       0.00000000       0.00000000 
Sb       1.29650000       1.29650000       1.29650000 
2
Lattice="0.0 2.3315 2.3315 2.3315 0.0 2.3315 2.3315 2.3315 0.0" Properties=species:S:1:pos:R:3 energy=-47879.88763740884 pbc="T T T"
Cu       0.00000000       0.00000000       0.00000000 
F       1.16575000       1.16575000       1.16575000 
2
Lattice="0.0 3.9145 3.9145 3.9145 0.0 3.9145 3.9145 3.9145 0.0" Properties=species:S:1:pos:R:3 energy=-286508.55694026384 pbc="T T T"
Cs       0.00000000       0.00000000       0.00000000 
Br       1.95725000       1.95725000       1.95725000 
2
Lattice="0.0 3.171 3.171 3.171 0.0 3.171 3.171 3.171 0.0" Properties=species:S:1:pos:R:3 energy=-217901.56117102414 pbc="T T T"
Cs       0.00000000       0.00000000       0.00000000 
F       1.58550000       1.58550000       1.58550000 
2
Lattice="0.0 3.433 3.433 3.433 0.0 3.433 3.433 3.433 0.0" Properties=species:S:1:pos:R:3 energy=-235819.9023550076 pbc="T T T"
Ba       0.00000000       0.00000000       0.00000000 
S       1.71650000       1.71650000       1.71650000 
2
Lattice="0.0 2.601 2.601 2.601 0.0 2.601 2.601 2.601 0.0" Properties=species:S:1:pos:R:3 energy=-148954.54881498084 pbc="T T T"
Ag       0.00000000       0.00000000       0.00000000 
F       1.30050000       1.30050000       1.30050000 
2
Lattice="0.0 2.23 2.23 2.23 0.0 2.23 2.23 2.23 0.0" Properties=species:S:1:pos:R:3 energy=-54586.79478183568 pbc="T T T"
Ga       0.00000000       0.00000000       0.00000000 
N       1.11500000       1.11500000       1.11500000 
2
Lattice="0.0 3.0175 3.0175 3.0175 0.0 3.0175 3.0175 3.0175 0.0" Properties=species:S:1:pos:R:3 energy=-217562.60785030882 pbc="T T T"
Ag       0.00000000       0.00000000       0.00000000 
Br       1.50875000       1.50875000       1.50875000 
2
Lattice="0.0 3.0140000000000002 3.0140000000000002 3.0140000000000002 0.0 3.0140000000000002 3.0140000000000002 3.0140000000000002 0.0" Properties=species:S:1:pos:R:3 energy=-223791.84260468127 pbc="T T T"
In       0.00000000       0.00000000       0.00000000 
As       1.50700000       1.50700000       1.50700000 
2
Lattice="0.0 2.2595 2.2595 2.2595 0.0 2.2595 2.2595 2.2595 0.0" Properties=species:S:1:pos:R:3 energy=-7473.684940431585 pbc="T T T"
Mg       0.00000000       0.00000000       0.00000000 
O       1.12975000       1.12975000       1.12975000 
2
Lattice="0.0 2.8965 2.8965 2.8965 0.0 2.8965 2.8965 2.8965 0.0" Properties=species:S:1:pos:R:3 energy=-227009.4679295827 pbc="T T T"
Ba       0.00000000       0.00000000       0.00000000 
O       1.44825000       1.44825000       1.44825000 
2
Lattice="0.0 2.665 2.665 2.665 0.0 2.665 2.665 2.665 0.0" Properties=species:S:1:pos:R:3 energy=-12749.008879657693 pbc="T T T"
Li       0.00000000       0.00000000       0.00000000 
Cl       1.33250000       1.33250000       1.33250000 
2
Lattice="0.0 3.1775 3.1775 3.1775 0.0 3.1775 3.1775 3.1775 0.0" Properties=species:S:1:pos:R:3 energy=-342678.4902137346 pbc="T T T"
Ag       0.00000000       0.00000000       0.00000000 
I       1.58875000       1.58875000       1.58875000 
2
Lattice="0.0 2.6050000000000004 2.6050000000000004 2.6050000000000004 0.0 2.6050000000000004 2.6050000000000004 2.6050000000000004 0.0" Properties=species:S:1:pos:R:3 energy=-57720.20643851321 pbc="T T T"
Cu       0.00000000       0.00000000       0.00000000 
Cl       1.30250000       1.30250000       1.30250000 
2
Lattice="0.0 2.8035 2.8035 2.8035 0.0 2.8035 2.8035 2.8035 0.0" Properties=species:S:1:pos:R:3 energy=-114915.9084712944 pbc="T T T"
Ga       0.00000000       0.00000000       0.00000000 
As       1.40175000       1.40175000       1.40175000 
2
Lattice="0.0 2.5420000000000003 2.5420000000000003 2.5420000000000003 0.0 2.5420000000000003 2.5420000000000003 2.5420000000000003 0.0" Properties=species:S:1:pos:R:3 energy=-66858.58340508485 pbc="T T T"
Be       0.00000000       0.00000000       0.00000000 
Se       1.27100000       1.27100000       1.27100000 
2
Lattice="0.0 3.186 3.186 3.186 0.0 3.186 3.186 3.186 0.0" Properties=species:S:1:pos:R:3 energy=-192870.4675248641 pbc="T T T"
Mg       0.00000000       0.00000000       0.00000000 
Te       1.59300000       1.59300000       1.59300000 
2
Lattice="0.0 2.932 2.932 2.932 0.0 2.932 2.932 2.932 0.0" Properties=species:S:1:pos:R:3 energy=-241603.64676566623 pbc="T T T"
Cu       0.00000000       0.00000000       0.00000000 
I       1.46600000       1.46600000       1.46600000 
2
Lattice="0.0 3.9885 3.9885 3.9885 0.0 3.9885 3.9885 3.9885 0.0" Properties=species:S:1:pos:R:3 energy=-278062.51642355934 pbc="T T T"
Rb       0.00000000       0.00000000       0.00000000 
I       1.99425000       1.99425000       1.99425000 
2
Lattice="0.0 2.367 2.367 2.367 0.0 2.367 2.367 2.367 0.0" Properties=species:S:1:pos:R:3 energy=-62480.44464464416 pbc="T T T"
B       0.00000000       0.00000000       0.00000000 
As       1.18350000       1.18350000       1.18350000 
2
Lattice="0.0 2.399 2.399 2.399 0.0 2.399 2.399 2.399 0.0" Properties=species:S:1:pos:R:3 energy=-11246.04373433578 pbc="T T T"
Be       0.00000000       0.00000000       0.00000000 
S       1.19950000       1.19950000       1.19950000 
2
Lattice="0.0 2.4995 2.4995 2.4995 0.0 2.4995 2.4995 2.4995 0.0" Properties=species:S:1:pos:R:3 energy=-171242.97789307163 pbc="T T T"
Sn       0.00000000       0.00000000       0.00000000 
C       1.24975000       1.24975000       1.24975000 
2
Lattice="0.0 3.03 3.03 3.03 0.0 3.03 3.03 3.03 0.0" Properties=species:S:1:pos:R:3 energy=-227575.0639009764 pbc="T T T"
Sn       0.00000000       0.00000000       0.00000000 
Ge       1.51500000       1.51500000       1.51500000 
2
Lattice="0.0 1.8433800000000002 1.8433800000000002 1.8433800000000002 0.0 1.8433800000000002 1.8433800000000002 1.8433800000000002 0.0" Properties=species:S:1:pos:R:3 energy=-2438.2635920814937 pbc="T T T"
Be       0.00000000       0.00000000       0.00000000 
O       0.92169000       0.92169000       0.92169000 
2
Lattice="0.0 3.0065 3.0065 3.0065 0.0 3.0065 3.0065 3.0065 0.0" Properties=species:S:1:pos:R:3 energy=-220454.2896655543 pbc="T T T"
Cd       0.00000000       0.00000000       0.00000000 
Se       1.50325000       1.50325000       1.50325000 
2
Lattice="0.0 2.8900000000000006 2.8900000000000006 2.8900000000000006 0.0 2.8900000000000006 2.8900000000000006 2.8900000000000006 0.0" Properties=species:S:1:pos:R:3 energy=-158794.81657092663 pbc="T T T"
Ag       0.00000000       0.00000000       0.00000000 
Cl       1.44500000       1.44500000       1.44500000 
2
Lattice="0.0 2.8130000000000006 2.8130000000000006 2.8130000000000006 0.0 2.8130000000000006 2.8130000000000006 2.8130000000000006 0.0" Properties=species:S:1:pos:R:3 energy=-114719.52411339089 pbc="T T T"
Ge       0.00000000       0.00000000       0.00000000 
Ge       1.40650000       1.40650000       1.40650000 
2
Lattice="0.0 2.938 2.938 2.938 0.0 2.938 2.938 2.938 0.0" Properties=species:S:1:pos:R:3 energy=-71895.76945808696 pbc="T T T"
Mg       0.00000000       0.00000000       0.00000000 
Se       1.46900000       1.46900000       1.46900000 
2
Lattice="0.0 3.807 3.807 3.807 0.0 3.807 3.807 3.807 0.0" Properties=species:S:1:pos:R:3 energy=-412407.70731711906 pbc="T T T"
Ba       0.00000000       0.00000000       0.00000000 
Te       1.90350000       1.90350000       1.90350000 
2
Lattice="0.0 2.4965 2.4965 2.4965 0.0 2.4965 2.4965 2.4965 0.0" Properties=species:S:1:pos:R:3 energy=-156030.16829621073 pbc="T T T"
Cd       0.00000000       0.00000000       0.00000000 
O       1.24825000       1.24825000       1.24825000 
2
Lattice="0.0 2.999 2.999 2.999 0.0 2.999 2.999 2.999 0.0" Properties=species:S:1:pos:R:3 energy=-236480.1053538215 pbc="T T T"
Zn       0.00000000       0.00000000       0.00000000 
Te       1.49950000       1.49950000       1.49950000 
2
Lattice="0.0 2.779 2.779 2.779 0.0 2.779 2.779 2.779 0.0" Properties=species:S:1:pos:R:3 energy=-187833.14554401216 pbc="T T T"
Be       0.00000000       0.00000000       0.00000000 
Te       1.38950000       1.38950000       1.38950000 
2
Lattice="0.0 3.5640000000000005 3.5640000000000005 3.5640000000000005 0.0 3.5640000000000005 3.5640000000000005 3.5640000000000005 0.0" Properties=species:S:1:pos:R:3 energy=-291432.85245395196 pbc="T T T"
Ba       0.00000000       0.00000000       0.00000000 
Se       1.78200000       1.78200000       1.78200000 
2
Lattice="0.0 2.799 2.799 2.799 0.0 2.799 2.799 2.799 0.0" Properties=species:S:1:pos:R:3 energy=-16283.01336707673 pbc="T T T"
Mg       0.00000000       0.00000000       0.00000000 
S       1.39950000       1.39950000       1.39950000 
2
Lattice="0.0 4.176 4.176 4.176 0.0 4.176 4.176 4.176 0.0" Properties=species:S:1:pos:R:3 energy=-411624.04093953123 pbc="T T T"
Cs       0.00000000       0.00000000       0.00000000 
I       2.08800000       2.08800000       2.08800000 
2
Lattice="0.0 1.7915000000000003 1.7915000000000003 1.7915000000000003 0.0 1.7915000000000003 1.7915000000000003 1.7915000000000003 0.0" Properties=species:S:1:pos:R:3 energy=-2153.490991107925 pbc="T T T"
B       0.00000000       0.00000000       0.00000000 
N       0.89575000       0.89575000       0.89575000 
2
Lattice="0.0 2.6495000000000006 2.6495000000000006 2.6495000000000006 0.0 2.6495000000000006 2.6495000000000006 2.6495000000000006 0.0" Properties=species:S:1:pos:R:3 energy=-59892.33037283568 pbc="T T T"
Zn       0.00000000       0.00000000       0.00000000 
S       1.32475000       1.32475000       1.32475000 
2
Lattice="0.0 3.5705000000000005 3.5705000000000005 3.5705000000000005 0.0 3.5705000000000005 3.5705000000000005 3.5705000000000005 0.0" Properties=species:S:1:pos:R:3 energy=-87692.12402019463 pbc="T T T"
K       0.00000000       0.00000000       0.00000000 
Br       1.78525000       1.78525000       1.78525000 
2
Lattice="0.0 1.767 1.767 1.767 0.0 1.767 1.767 1.767 0.0" Properties=species:S:1:pos:R:3 energy=-2058.3548478276507 pbc="T T T"
C       0.00000000       0.00000000       0.00000000 
C       0.88350000       0.88350000       0.88350000 
2
Lattice="0.0 2.8485 2.8485 2.8485 0.0 2.8485 2.8485 2.8485 0.0" Properties=species:S:1:pos:R:3 energy=-19085.26294192211 pbc="T T T"
K       0.00000000       0.00000000       0.00000000 
F       1.42425000       1.42425000       1.42425000 
2
Lattice="0.0 2.1655 2.1655 2.1655 0.0 2.1655 2.1655 2.1655 0.0" Properties=species:S:1:pos:R:3 energy=-8903.90924494602 pbc="T T T"
Si       0.00000000       0.00000000       0.00000000 
C       1.08275000       1.08275000       1.08275000 
2
Lattice="0.0 3.257 3.257 3.257 0.0 3.257 3.257 3.257 0.0" Properties=species:S:1:pos:R:3 energy=-97950.5342983795 pbc="T T T"
Sr       0.00000000       0.00000000       0.00000000 
S       1.62850000       1.62850000       1.62850000 
2
Lattice="0.0 2.6975 2.6975 2.6975 0.0 2.6975 2.6975 2.6975 0.0" Properties=species:S:1:pos:R:3 energy=-62397.40853542319 pbc="T T T"
Ga       0.00000000       0.00000000       0.00000000 
P       1.34875000       1.34875000       1.34875000 
2
Lattice="0.0 2.2465 2.2465 2.2465 0.0 2.2465 2.2465 2.2465 0.0" Properties=species:S:1:pos:R:3 energy=-51081.82234577797 pbc="T T T"
Zn       0.00000000       0.00000000       0.00000000 
O       1.12325000       1.12325000       1.12325000 
2
Lattice="0.0 3.238 3.238 3.238 0.0 3.238 3.238 3.238 0.0" Properties=species:S:1:pos:R:3 energy=-340430.73511227476 pbc="T T T"
Sn       0.00000000       0.00000000       0.00000000 
Sn       1.61900000       1.61900000       1.61900000 
2
Lattice="0.0 2.5605 2.5605 2.5605 0.0 2.5605 2.5605 2.5605 0.0" Properties=species:S:1:pos:R:3 energy=-20553.27173236442 pbc="T T T"
Ca       0.00000000       0.00000000       0.00000000 
O       1.28025000       1.28025000       1.28025000 
2
Lattice="0.0 3.189 3.189 3.189 0.0 3.189 3.189 3.189 0.0" Properties=species:S:1:pos:R:3 energy=-75717.9993094551 pbc="T T T"
Na       0.00000000       0.00000000       0.00000000 
Br       1.59450000       1.59450000       1.59450000 
2
Lattice="0.0 3.0155000000000003 3.0155000000000003 3.0155000000000003 0.0 3.0155000000000003 3.0155000000000003 3.0155000000000003 0.0" Properties=species:S:1:pos:R:3 energy=-16950.48088484294 pbc="T T T"
Na       0.00000000       0.00000000       0.00000000 
Cl       1.50775000       1.50775000       1.50775000 
2
Lattice="0.0 2.816 2.816 2.816 0.0 2.816 2.816 2.816 0.0" Properties=species:S:1:pos:R:3 energy=-68400.5815491907 pbc="T T T"
Al       0.00000000       0.00000000       0.00000000 
As       1.40800000       1.40800000       1.40800000 
2
Lattice="0.0 2.749 2.749 2.749 0.0 2.749 2.749 2.749 0.0" Properties=species:S:1:pos:R:3 energy=-116487.85055732082 pbc="T T T"
Cu       0.00000000       0.00000000       0.00000000 
Br       1.37450000       1.37450000       1.37450000 
2
Lattice="0.0 3.3875000000000006 3.3875000000000006 3.3875000000000006 0.0 3.3875000000000006 3.3875000000000006 3.3875000000000006 0.0" Properties=species:S:1:pos:R:3 energy=-153563.42783619405 pbc="T T T"
Sr       0.00000000       0.00000000       0.00000000 
Se       1.69375000       1.69375000       1.69375000 
2
Lattice="0.0 3.6335000000000006 3.6335000000000006 3.6335000000000006 0.0 3.6335000000000006 3.6335000000000006 3.6335000000000006 0.0" Properties=species:S:1:pos:R:3 energy=-274538.2157054243 pbc="T T T"
Sr       0.00000000       0.00000000       0.00000000 
Te       1.81675000       1.81675000       1.81675000 
2
Lattice="0.0 3.026 3.026 3.026 0.0 3.026 3.026 3.026 0.0" Properties=species:S:1:pos:R:3 energy=-231804.2747478469 pbc="T T T"
Ga       0.00000000       0.00000000       0.00000000 
Sb       1.51300000       1.51300000       1.51300000 
2
Lattice="0.0 3.0780000000000003 3.0780000000000003 3.0780000000000003 0.0 3.0780000000000003 3.0780000000000003 3.0780000000000003 0.0" Properties=species:S:1:pos:R:3 energy=-29363.155215680923 pbc="T T T"
Ca       0.00000000       0.00000000       0.00000000 
S       1.53900000       1.53900000       1.53900000 
2
Lattice="0.0 3.1045 3.1045 3.1045 0.0 3.1045 3.1045 3.1045 0.0" Properties=species:S:1:pos:R:3 energy=-196631.76676306076 pbc="T T T"
Li       0.00000000       0.00000000       0.00000000 
I       1.55225000       1.55225000       1.55225000 
2
Lattice="0.0 2.74 2.74 2.74 0.0 2.74 2.74 2.74 0.0" Properties=species:S:1:pos:R:3 energy=-89140.28283132527 pbc="T T T"
Sr       0.00000000       0.00000000       0.00000000 
O       1.37000000       1.37000000       1.37000000 
2
Lattice="0.0 2.786 2.786 2.786 0.0 2.786 2.786 2.786 0.0" Properties=species:S:1:pos:R:3 energy=-115505.1660247559 pbc="T T T"
Zn       0.00000000       0.00000000       0.00000000 
Se       1.39300000       1.39300000       1.39300000 
2
Lattice="0.0 3.4565000000000006 3.4565000000000006 3.4565000000000006 0.0 3.4565000000000006 3.4565000000000006 3.4565000000000006 0.0" Properties=species:S:1:pos:R:3 energy=-205950.6913252814 pbc="T T T"
Ca       0.00000000       0.00000000       0.00000000 
Te       1.72825000       1.72825000       1.72825000 
2
Lattice="0.0 3.3865000000000003 3.3865000000000003 3.3865000000000003 0.0 3.3865000000000003 3.3865000000000003 3.3865000000000003 0.0" Properties=species:S:1:pos:R:3 energy=-28924.560022009297 pbc="T T T"
K       0.00000000       0.00000000       0.00000000 
Cl       1.69325000       1.69325000       1.69325000 
2
Lattice="0.0 2.88 2.88 2.88 0.0 2.88 2.88 2.88 0.0" Properties=species:S:1:pos:R:3 energy=-164841.27206907814 pbc="T T T"
Cd       0.00000000       0.00000000       0.00000000 
S       1.44000000       1.44000000       1.44000000 
2
Lattice="0.0 3.006 3.006 3.006 0.0 3.006 3.006 3.006 0.0" Properties=species:S:1:pos:R:3 energy=-84340.09612645234 pbc="T T T"
Rb       0.00000000       0.00000000       0.00000000 
F       1.50300000       1.50300000       1.50300000 
2
Lattice="0.0 2.4825 2.4825 2.4825 0.0 2.4825 2.4825 2.4825 0.0" Properties=species:S:1:pos:R:3 energy=-7111.395235774646 pbc="T T T"
Na       0.00000000       0.00000000       0.00000000 
F       1.24125000       1.24125000       1.24125000 
2
Lattice="0.0 2.246 2.246 2.246 0.0 2.246 2.246 2.246 0.0" Properties=species:S:1:pos:R:3 energy=-9962.583290077831 pbc="T T T"
B       0.00000000       0.00000000       0.00000000 
P       1.12300000       1.12300000       1.12300000 
2
Lattice="0.0 3.7425 3.7425 3.7425 0.0 3.7425 3.7425 3.7425 0.0" Properties=species:S:1:pos:R:3 energy=-227740.9517285463 pbc="T T T"
Cs       0.00000000       0.00000000       0.00000000 
Cl       1.87125000       1.87125000       1.87125000 
2
Lattice="0.0 3.056 3.056 3.056 0.0 3.056 3.056 3.056 0.0" Properties=species:S:1:pos:R:3 energy=-185288.69774623765 pbc="T T T"
Al       0.00000000       0.00000000       0.00000000 
Sb       1.52800000       1.52800000       1.52800000 
2
Lattice="0.0 3.823 3.823 3.823 0.0 3.823 3.823 3.823 0.0" Properties=species:S:1:pos:R:3 energy=-212807.56571540702 pbc="T T T"
K       0.00000000       0.00000000       0.00000000 
I       1.91150000       1.91150000       1.91150000 
2
Lattice="0.0 2.9150000000000005 2.9150000000000005 2.9150000000000005 0.0 2.9150000000000005 2.9150000000000005 2.9150000000000005 0.0" Properties=species:S:1:pos:R:3 energy=-171273.18237961968 pbc="T T T"
In       0.00000000       0.00000000       0.00000000 
P       1.45750000       1.45750000       1.45750000 
2
Lattice="0.0 2.4715 2.4715 2.4715 0.0 2.4715 2.4715 2.4715 0.0" Properties=species:S:1:pos:R:3 energy=-163461.73701009987 pbc="T T T"
In       0.00000000       0.00000000       0.00000000 
N       1.23575000       1.23575000       1.23575000 
2
Lattice="0.0 3.227 3.227 3.227 0.0 3.227 3.227 3.227 0.0" Properties=species:S:1:pos:R:3 energy=-340680.363332343 pbc="T T T"
In       0.00000000       0.00000000       0.00000000 
Sb       1.61350000       1.61350000       1.61350000 
2
Lattice="0.0 2.2655 2.2655 2.2655 0.0 2.2655 2.2655 2.2655 0.0" Properties=species:S:1:pos:R:3 energy=-58388.17983601585 pbc="T T T"
Ge       0.00000000       0.00000000       0.00000000 
C       1.13275000       1.13275000       1.13275000 
2
Lattice="0.0 2.8440000000000003 2.8440000000000003 2.8440000000000003 0.0 2.8440000000000003 2.8440000000000003 2.8440000000000003 0.0" Properties=species:S:1:pos:R:3 energy=-71516.44258094506 pbc="T T T"
Li       0.00000000       0.00000000       0.00000000 
Br       1.42200000       1.42200000       1.42200000 
2
Lattice="0.0 2.7505000000000006 2.7505000000000006 2.7505000000000006 0.0 2.7505000000000006 2.7505000000000006 2.7505000000000006 0.0" Properties=species:S:1:pos:R:3 energy=-65233.91449811606 pbc="T T T"
Ge       0.00000000       0.00000000       0.00000000 
Si       1.37525000       1.37525000       1.37525000 
2
Lattice="0.0 2.106 2.106 2.106 0.0 2.106 2.106 2.106 0.0" Properties=species:S:1:pos:R:3 energy=-2910.3654850742855 pbc="T T T"
Li       0.00000000       0.00000000       0.00000000 
F       1.05300000       1.05300000       1.05300000 
2
Lattice="0.0 3.553 3.553 3.553 0.0 3.553 3.553 3.553 0.0" Properties=species:S:1:pos:R:3 energy=-94179.46483892911 pbc="T T T"
Rb       0.00000000       0.00000000       0.00000000 
Cl       1.77650000       1.77650000       1.77650000 
2
Lattice="0.0 2.7015 2.7015 2.7015 0.0 2.7015 2.7015 2.7015 0.0" Properties=species:S:1:pos:R:3 energy=-15748.352656282728 pbc="T T T"
Si       0.00000000       0.00000000       0.00000000 
Si       1.35075000       1.35075000       1.35075000 
2
Lattice="0.0 2.1725 2.1725 2.1725 0.0 2.1725 2.1725 2.1725 0.0" Properties=species:S:1:pos:R:3 energy=-8073.003995153874 pbc="T T T"
Al       0.00000000       0.00000000       0.00000000 
N       1.08625000       1.08625000       1.08625000 
2
Lattice="0.0 3.7255 3.7255 3.7255 0.0 3.7255 3.7255 3.7255 0.0" Properties=species:S:1:pos:R:3 energy=-152947.05114426944 pbc="T T T"
Rb       0.00000000       0.00000000       0.00000000 
Br       1.86275000       1.86275000       1.86275000 
2
Lattice="0.0 3.209 3.209 3.209 0.0 3.209 3.209 3.209 0.0" Properties=species:S:1:pos:R:3 energy=-84975.98424493216 pbc="T T T"
Ca       0.00000000       0.00000000       0.00000000 
Se       1.60450000       1.60450000       1.60450000 
2
Lattice="0.0 3.207 3.207 3.207 0.0 3.207 3.207 3.207 0.0" Properties=species:S:1:pos:R:3 energy=-341429.4077039232 pbc="T T T"
Cd       0.00000000       0.00000000       0.00000000 
Te       1.60350000       1.60350000       1.60350000 
2
Lattice="0.0 2.718 2.718 2.718 0.0 2.718 2.718 2.718 0.0" Properties=species:S:1:pos:R:3 energy=-15882.163407129694 pbc="T T T"
Al       0.00000000       0.00000000       0.00000000 
P       1.35900000       1.35900000       1.35900000 
