2
Lattice="0.0 2.9765 2.9765 2.9765 0.0 2.9765 2.9765 2.9765 0.0" Properties=species:S:1:pos:R:3 energy=-178089.261024 pbc="T T T"
Sn       0.00000000       0.00000000       0.00000000 
Si       1.48825000       1.48825000       1.48825000 
2
Lattice="0.0 3.446 3.446 3.446 0.0 3.446 3.446 3.446 0.0" Properties=species:S:1:pos:R:3 energy=-200833.402786 pbc="T T T"
Na       0.00000000       0.00000000       0.00000000 
I       1.72300000       1.72300000       1.72300000 
2
Lattice="0.0 2.593 2.593 2.593 0.0 2.593 2.593 2.593 0.0" Properties=species:S:1:pos:R:3 energy=-179368.389101 pbc="T T T"
B       0.00000000       0.00000000       0.00000000 
Sb       1.29650000       1.29650000       1.29650000 
2
Lattice="0.0 2.3315 2.3315 2.3315 0.0 2.3315 2.3315 2.3315 0.0" Properties=species:S:1:pos:R:3 energy=-47879.8876374 pbc="T T T"
Cu       0.00000000       0.00000000       0.00000000 
F       1.16575000       1.16575000       1.16575000 
2
Lattice="0.0 3.9145 3.9145 3.9145 0.0 3.9145 3.9145 3.9145 0.0" Properties=species:S:1:pos:R:3 energy=-286508.55694 pbc="T T T"
Cs       0.00000000       0.00000000       0.00000000 
Br       1.95725000       1.95725000       1.95725000 
2
Lattice="0.0 3.171 3.171 3.171 0.0 3.171 3.171 3.171 0.0" Properties=species:S:1:pos:R:3 energy=-217901.561171 pbc="T T T"
Cs       0.00000000       0.00000000       0.00000000 
F       1.58550000       1.58550000       1.58550000 
2
Lattice="0.0 3.433 3.433 3.433 0.0 3.433 3.433 3.433 0.0" Properties=species:S:1:pos:R:3 energy=-235819.902355 pbc="T T T"
Ba       0.00000000       0.00000000       0.00000000 
S       1.71650000       1.71650000       1.71650000 
2
Lattice="0.0 2.601 2.601 2.601 0.0 2.601 2.601 2.601 0.0" Properties=species:S:1:pos:R:3 energy=-148954.548815 pbc="T T T"
Ag       0.00000000       0.00000000       0.00000000 
F       1.30050000       1.30050000       1.30050000 
2
Lattice="0.0 2.23 2.23 2.23 0.0 2.23 2.23 2.23 0.0" Properties=species:S:1:pos:R:3 energy=-54586.7947818 pbc="T T T"
Ga       0.00000000       0.00000000       0.00000000 
N       1.11500000       1.11500000       1.11500000 
2
Lattice="0.0 3.0175 3.0175 3.0175 0.0 3.0175 3.0175 3.0175 0.0" Properties=species:S:1:pos:R:3 energy=-217562.60785 pbc="T T T"
Ag       0.00000000       0.00000000       0.00000000 
Br       1.50875000       1.50875000       1.50875000 
2
Lattice="0.0 3.014 3.014 3.014 0.0 3.014 3.014 3.014 0.0" Properties=species:S:1:pos:R:3 energy=-223791.842605 pbc="T T T"
In       0.00000000       0.00000000       0.00000000 
As       1.50700000       1.50700000       1.50700000 
2
Lattice="0.0 2.2595 2.2595 2.2595 0.0 2.2595 2.2595 2.2595 0.0" Properties=species:S:1:pos:R:3 energy=-7473.68494043 pbc="T T T"
Mg       0.00000000       0.00000000       0.00000000 
O       1.12975000       1.12975000       1.12975000 
2
Lattice="0.0 2.8965 2.8965 2.8965 0.0 2.8965 2.8965 2.8965 0.0" Properties=species:S:1:pos:R:3 energy=-227009.46793 pbc="T T T"
Ba       0.00000000       0.00000000       0.00000000 
O       1.44825000       1.44825000       1.44825000 
2
Lattice="0.0 2.665 2.665 2.665 0.0 2.665 2.665 2.665 0.0" Properties=species:S:1:pos:R:3 energy=-12749.0088797 pbc="T T T"
Li       0.00000000       0.00000000       0.00000000 
Cl       1.33250000       1.33250000       1.33250000 
2
Lattice="0.0 3.1775 3.1775 3.1775 0.0 3.1775 3.1775 3.1775 0.0" Properties=species:S:1:pos:R:3 energy=-342678.490214 pbc="T T T"
Ag       0.00000000       0.00000000       0.00000000 
I       1.58875000       1.58875000       1.58875000 
2
Lattice="0.0 2.605 2.605 2.605 0.0 2.605 2.605 2.605 0.0" Properties=species:S:1:pos:R:3 energy=-57720.2064385 pbc="T T T"
Cu       0.00000000       0.00000000       0.00000000 
Cl       1.30250000       1.30250000       1.30250000 
2
Lattice="0.0 2.8035 2.8035 2.8035 0.0 2.8035 2.8035 2.8035 0.0" Properties=species:S:1:pos:R:3 energy=-114915.908471 pbc="T T T"
Ga       0.00000000       0.00000000       0.00000000 
As       1.40175000       1.40175000       1.40175000 
2
Lattice="0.0 2.542 2.542 2.542 0.0 2.542 2.542 2.542 0.0" Properties=species:S:1:pos:R:3 energy=-66858.5834051 pbc="T T T"
Be       0.00000000       0.00000000       0.00000000 
Se       1.27100000       1.27100000       1.27100000 
2
Lattice="0.0 3.186 3.186 3.186 0.0 3.186 3.186 3.186 0.0" Properties=species:S:1:pos:R:3 energy=-192870.467525 pbc="T T T"
Mg       0.00000000       0.00000000       0.00000000 
Te       1.59300000       1.59300000       1.59300000 
2
Lattice="0.0 2.932 2.932 2.932 0.0 2.932 2.932 2.932 0.0" Properties=species:S:1:pos:R:3 energy=-241603.646766 pbc="T T T"
Cu       0.00000000       0.00000000       0.00000000 
I       1.46600000       1.46600000       1.46600000 
2
Lattice="0.0 3.9885 3.9885 3.9885 0.0 3.9885 3.9885 3.9885 0.0" Properties=species:S:1:pos:R:3 energy=-278062.516424 pbc="T T T"
Rb       0.00000000       0.00000000       0.00000000 
I       1.99425000       1.99425000       1.99425000 
2
Lattice="0.0 2.367 2.367 2.367 0.0 2.367 2.367 2.367 0.0" Properties=species:S:1:pos:R:3 energy=-62480.4446446 pbc="T T T"
B       0.00000000       0.00000000       0.00000000 
As       1.18350000       1.18350000       1.18350000 
2
Lattice="0.0 2.399 2.399 2.399 0.0 2.399 2.399 2.399 0.0" Properties=species:S:1:pos:R:3 energy=-11246.0437343 pbc="T T T"
Be       0.00000000       0.00000000       0.00000000 
S       1.19950000       1.19950000       1.19950000 
2
Lattice="0.0 2.4995 2.4995 2.4995 0.0 2.4995 2.4995 2.4995 0.0" Properties=species:S:1:pos:R:3 energy=-171242.977893 pbc="T T T"
Sn       0.00000000       0.00000000       0.00000000 
C       1.24975000       1.24975000       1.24975000 
2
Lattice="0.0 3.03 3.03 3.03 0.0 3.03 3.03 3.03 0.0" Properties=species:S:1:pos:R:3 energy=-227575.063901 pbc="T T T"
Sn       0.00000000       0.00000000       0.00000000 
Ge       1.51500000       1.51500000       1.51500000 
2
Lattice="0.0 1.84338 1.84338 1.84338 0.0 1.84338 1.84338 1.84338 0.0" Properties=species:S:1:pos:R:3 energy=-2438.26359208 pbc="T T T"
Be       0.00000000       0.00000000       0.00000000 
O       0.92169000       0.92169000       0.92169000 
2
Lattice="0.0 3.0065 3.0065 3.0065 0.0 3.0065 3.0065 3.0065 0.0" Properties=species:S:1:pos:R:3 energy=-220454.289666 pbc="T T T"
Cd       0.00000000       0.00000000       0.00000000 
Se       1.50325000       1.50325000       1.50325000 
2
Lattice="0.0 2.89 2.89 2.89 0.0 2.89 2.89 2.89 0.0" Properties=species:S:1:pos:R:3 energy=-158794.816571 pbc="T T T"
Ag       0.00000000       0.00000000       0.00000000 
Cl       1.44500000       1.44500000       1.44500000 
2
Lattice="0.0 2.813 2.813 2.813 0.0 2.813 2.813 2.813 0.0" Properties=species:S:1:pos:R:3 energy=-114719.524113 pbc="T T T"
Ge       0.00000000       0.00000000       0.00000000 
Ge       1.40650000       1.40650000       1.40650000 
2
Lattice="0.0 2.938 2.938 2.938 0.0 2.938 2.938 2.938 0.0" Properties=species:S:1:pos:R:3 energy=-71895.7694581 pbc="T T T"
Mg       0.00000000       0.00000000       0.00000000 
Se       1.46900000       1.46900000       1.46900000 
2
Lattice="0.0 3.807 3.807 3.807 0.0 3.807 3.807 3.807 0.0" Properties=species:S:1:pos:R:3 energy=-412407.707317 pbc="T T T"
Ba       0.00000000       0.00000000       0.00000000 
Te       1.90350000       1.90350000       1.90350000 
2
Lattice="0.0 2.4965 2.4965 2.4965 0.0 2.4965 2.4965 2.4965 0.0" Properties=species:S:1:pos:R:3 energy=-156030.168296 pbc="T T T"
Cd       0.00000000       0.00000000       0.00000000 
O       1.24825000       1.24825000       1.24825000 
2
Lattice="0.0 2.999 2.999 2.999 0.0 2.999 2.999 2.999 0.0" Properties=species:S:1:pos:R:3 energy=-236480.105354 pbc="T T T"
Zn       0.00000000       0.00000000       0.00000000 
Te       1.49950000       1.49950000       1.49950000 
2
Lattice="0.0 2.779 2.779 2.779 0.0 2.779 2.779 2.779 0.0" Properties=species:S:1:pos:R:3 energy=-187833.145544 pbc="T T T"
Be       0.00000000       0.00000000       0.00000000 
Te       1.38950000       1.38950000       1.38950000 
2
Lattice="0.0 3.564 3.564 3.564 0.0 3.564 3.564 3.564 0.0" Properties=species:S:1:pos:R:3 energy=-291432.852454 pbc="T T T"
Ba       0.00000000       0.00000000       0.00000000 
Se       1.78200000       1.78200000       1.78200000 
2
Lattice="0.0 2.799 2.799 2.799 0.0 2.799 2.799 2.799 0.0" Properties=species:S:1:pos:R:3 energy=-16283.0133671 pbc="T T T"
Mg       0.00000000       0.00000000       0.00000000 
S       1.39950000       1.39950000       1.39950000 
2
Lattice="0.0 4.176 4.176 4.176 0.0 4.176 4.176 4.176 0.0" Properties=species:S:1:pos:R:3 energy=-411624.04094 pbc="T T T"
Cs       0.00000000       0.00000000       0.00000000 
I       2.08800000       2.08800000       2.08800000 
2
Lattice="0.0 1.7915 1.7915 1.7915 0.0 1.7915 1.7915 1.7915 0.0" Properties=species:S:1:pos:R:3 energy=-2153.49099111 pbc="T T T"
B       0.00000000       0.00000000       0.00000000 
N       0.89575000       0.89575000       0.89575000 
2
Lattice="0.0 2.6495 2.6495 2.6495 0.0 2.6495 2.6495 2.6495 0.0" Properties=species:S:1:pos:R:3 energy=-59892.3303728 pbc="T T T"
Zn       0.00000000       0.00000000       0.00000000 
S       1.32475000       1.32475000       1.32475000 
2
Lattice="0.0 3.5705 3.5705 3.5705 0.0 3.5705 3.5705 3.5705 0.0" Properties=species:S:1:pos:R:3 energy=-87692.1240202 pbc="T T T"
K       0.00000000       0.00000000       0.00000000 
Br       1.78525000       1.78525000       1.78525000 
2
Lattice="0.0 1.767 1.767 1.767 0.0 1.767 1.767 1.767 0.0" Properties=species:S:1:pos:R:3 energy=-2058.35484783 pbc="T T T"
C       0.00000000       0.00000000       0.00000000 
C       0.88350000       0.88350000       0.88350000 
2
Lattice="0.0 2.8485 2.8485 2.8485 0.0 2.8485 2.8485 2.8485 0.0" Properties=species:S:1:pos:R:3 energy=-19085.2629419 pbc="T T T"
K       0.00000000       0.00000000       0.00000000 
F       1.42425000       1.42425000       1.42425000 
2
Lattice="0.0 2.1655 2.1655 2.1655 0.0 2.1655 2.1655 2.1655 0.0" Properties=species:S:1:pos:R:3 energy=-8903.90924495 pbc="T T T"
Si       0.00000000       0.00000000       0.00000000 
C       1.08275000       1.08275000       1.08275000 
2
Lattice="0.0 3.257 3.257 3.257 0.0 3.257 3.257 3.257 0.0" Properties=species:S:1:pos:R:3 energy=-97950.5342984 pbc="T T T"
Sr       0.00000000       0.00000000       0.00000000 
S       1.62850000       1.62850000       1.62850000 
2
Lattice="0.0 2.6975 2.6975 2.6975 0.0 2.6975 2.6975 2.6975 0.0" Properties=species:S:1:pos:R:3 energy=-62397.4085354 pbc="T T T"
Ga       0.00000000       0.00000000       0.00000000 
P       1.34875000       1.34875000       1.34875000 
2
Lattice="0.0 2.2465 2.2465 2.2465 0.0 2.2465 2.2465 2.2465 0.0" Properties=species:S:1:pos:R:3 energy=-51081.8223458 pbc="T T T"
Zn       0.00000000       0.00000000       0.00000000 
O       1.12325000       1.12325000       1.12325000 
2
Lattice="0.0 3.238 3.238 3.238 0.0 3.238 3.238 3.238 0.0" Properties=species:S:1:pos:R:3 energy=-340430.735112 pbc="T T T"
Sn       0.00000000       0.00000000       0.00000000 
Sn       1.61900000       1.61900000       1.61900000 
2
Lattice="0.0 2.5605 2.5605 2.5605 0.0 2.5605 2.5605 2.5605 0.0" Properties=species:S:1:pos:R:3 energy=-20553.2717324 pbc="T T T"
Ca       0.00000000       0.00000000       0.00000000 
O       1.28025000       1.28025000       1.28025000 
2
Lattice="0.0 3.189 3.189 3.189 0.0 3.189 3.189 3.189 0.0" Properties=species:S:1:pos:R:3 energy=-75717.9993095 pbc="T T T"
Na       0.00000000       0.00000000       0.00000000 
Br       1.59450000       1.59450000       1.59450000 
2
Lattice="0.0 3.0155 3.0155 3.0155 0.0 3.0155 3.0155 3.0155 0.0" Properties=species:S:1:pos:R:3 energy=-16950.4808848 pbc="T T T"
Na       0.00000000       0.00000000       0.00000000 
Cl       1.50775000       1.50775000       1.50775000 
2
Lattice="0.0 2.816 2.816 2.816 0.0 2.816 2.816 2.816 0.0" Properties=species:S:1:pos:R:3 energy=-68400.5815492 pbc="T T T"
Al       0.00000000       0.00000000       0.00000000 
As       1.40800000       1.40800000       1.40800000 
2
Lattice="0.0 2.749 2.749 2.749 0.0 2.749 2.749 2.749 0.0" Properties=species:S:1:pos:R:3 energy=-116487.850557 pbc="T T T"
Cu       0.00000000       0.00000000       0.00000000 
Br       1.37450000       1.37450000       1.37450000 
2
Lattice="0.0 3.3875 3.3875 3.3875 0.0 3.3875 3.3875 3.3875 0.0" Properties=species:S:1:pos:R:3 energy=-153563.427836 pbc="T T T"
Sr       0.00000000       0.00000000       0.00000000 
Se       1.69375000       1.69375000       1.69375000 
2
Lattice="0.0 3.6335 3.6335 3.6335 0.0 3.6335 3.6335 3.6335 0.0" Properties=species:S:1:pos:R:3 energy=-274538.215705 pbc="T T T"
Sr       0.00000000       0.00000000       0.00000000 
Te       1.81675000       1.81675000       1.81675000 
2
Lattice="0.0 3.026 3.026 3.026 0.0 3.026 3.026 3.026 0.0" Properties=species:S:1:pos:R:3 energy=-231804.274748 pbc="T T T"
Ga       0.00000000       0.00000000       0.00000000 
Sb       1.51300000       1.51300000       1.51300000 
2
Lattice="0.0 3.078 3.078 3.078 0.0 3.078 3.078 3.078 0.0" Properties=species:S:1:pos:R:3 energy=-29363.1552157 pbc="T T T"
Ca       0.00000000       0.00000000       0.00000000 
S       1.53900000       1.53900000       1.53900000 
2
Lattice="0.0 3.1045 3.1045 3.1045 0.0 3.1045 3.1045 3.1045 0.0" Properties=species:S:1:pos:R:3 energy=-196631.766763 pbc="T T T"
Li       0.00000000       0.00000000       0.00000000 
I       1.55225000       1.55225000       1.55225000 
2
Lattice="0.0 2.74 2.74 2.74 0.0 2.74 2.74 2.74 0.0" Properties=species:S:1:pos:R:3 energy=-89140.2828313 pbc="T T T"
Sr       0.00000000       0.00000000       0.00000000 
O       1.37000000       1.37000000       1.37000000 
2
Lattice="0.0 2.786 2.786 2.786 0.0 2.786 2.786 2.786 0.0" Properties=species:S:1:pos:R:3 energy=-115505.166025 pbc="T T T"
Zn       0.00000000       0.00000000       0.00000000 
Se       1.39300000       1.39300000       1.39300000 
2
Lattice="0.0 3.4565 3.4565 3.4565 0.0 3.4565 3.4565 3.4565 0.0" Properties=species:S:1:pos:R:3 energy=-205950.691325 pbc="T T T"
Ca       0.00000000       0.00000000       0.00000000 
Te       1.72825000       1.72825000       1.72825000 
2
Lattice="0.0 3.3865 3.3865 3.3865 0.0 3.3865 3.3865 3.3865 0.0" Properties=species:S:1:pos:R:3 energy=-28924.560022 pbc="T T T"
K       0.00000000       0.00000000       0.00000000 
Cl       1.69325000       1.69325000       1.69325000 
2
Lattice="0.0 2.88 2.88 2.88 0.0 2.88 2.88 2.88 0.0" Properties=species:S:1:pos:R:3 energy=-164841.272069 pbc="T T T"
Cd       0.00000000       0.00000000       0.00000000 
S       1.44000000       1.44000000       1.44000000 
2
Lattice="0.0 3.006 3.006 3.006 0.0 3.006 3.006 3.006 0.0" Properties=species:S:1:pos:R:3 energy=-84340.0961265 pbc="T T T"
Rb       0.00000000       0.00000000       0.00000000 
F       1.50300000       1.50300000       1.50300000 
2
Lattice="0.0 2.4825 2.4825 2.4825 0.0 2.4825 2.4825 2.4825 0.0" Properties=species:S:1:pos:R:3 energy=-7111.39523577 pbc="T T T"
Na       0.00000000       0.00000000       0.00000000 
F       1.24125000       1.24125000       1.24125000 
2
Lattice="0.0 2.246 2.246 2.246 0.0 2.246 2.246 2.246 0.0" Properties=species:S:1:pos:R:3 energy=-9962.58329008 pbc="T T T"
B       0.00000000       0.00000000       0.00000000 
P       1.12300000       1.12300000       1.12300000 
2
Lattice="0.0 3.7425 3.7425 3.7425 0.0 3.7425 3.7425 3.7425 0.0" Properties=species:S:1:pos:R:3 energy=-227740.951729 pbc="T T T"
Cs       0.00000000       0.00000000       0.00000000 
Cl       1.87125000       1.87125000       1.87125000 
2
Lattice="0.0 3.056 3.056 3.056 0.0 3.056 3.056 3.056 0.0" Properties=species:S:1:pos:R:3 energy=-185288.697746 pbc="T T T"
Al       0.00000000       0.00000000       0.00000000 
Sb       1.52800000       1.52800000       1.52800000 
2
Lattice="0.0 3.823 3.823 3.823 0.0 3.823 3.823 3.823 0.0" Properties=species:S:1:pos:R:3 energy=-212807.565715 pbc="T T T"
K       0.00000000       0.00000000       0.00000000 
I       1.91150000       1.91150000       1.91150000 
2
Lattice="0.0 2.915 2.915 2.915 0.0 2.915 2.915 2.915 0.0" Properties=species:S:1:pos:R:3 energy=-171273.18238 pbc="T T T"
In       0.00000000       0.00000000       0.00000000 
P       1.45750000       1.45750000       1.45750000 
2
Lattice="0.0 2.4715 2.4715 2.4715 0.0 2.4715 2.4715 2.4715 0.0" Properties=species:S:1:pos:R:3 energy=-163461.73701 pbc="T T T"
In       0.00000000       0.00000000       0.00000000 
N       1.23575000       1.23575000       1.23575000 
2
Lattice="0.0 3.227 3.227 3.227 0.0 3.227 3.227 3.227 0.0" Properties=species:S:1:pos:R:3 energy=-340680.363332 pbc="T T T"
In       0.00000000       0.00000000       0.00000000 
Sb       1.61350000       1.61350000       1.61350000 
2
Lattice="0.0 2.2655 2.2655 2.2655 0.0 2.2655 2.2655 2.2655 0.0" Properties=species:S:1:pos:R:3 energy=-58388.179836 pbc="T T T"
Ge       0.00000000       0.00000000       0.00000000 
C       1.13275000       1.13275000       1.13275000 
2
Lattice="0.0 2.844 2.844 2.844 0.0 2.844 2.844 2.844 0.0" Properties=species:S:1:pos:R:3 energy=-71516.4425809 pbc="T T T"
Li       0.00000000       0.00000000       0.00000000 
Br       1.42200000       1.42200000       1.42200000 
2
Lattice="0.0 2.7505 2.7505 2.7505 0.0 2.7505 2.7505 2.7505 0.0" Properties=species:S:1:pos:R:3 energy=-65233.9144981 pbc="T T T"
Ge       0.00000000       0.00000000       0.00000000 
Si       1.37525000       1.37525000       1.37525000 
2
Lattice="0.0 2.106 2.106 2.106 0.0 2.106 2.106 2.106 0.0" Properties=species:S:1:pos:R:3 energy=-2910.36548507 pbc="T T T"
Li       0.00000000       0.00000000       0.00000000 
F       1.05300000       1.05300000       1.05300000 
2
Lattice="0.0 3.553 3.553 3.553 0.0 3.553 3.553 3.553 0.0" Properties=species:S:1:pos:R:3 energy=-94179.4648389 pbc="T T T"
Rb       0.00000000       0.00000000       0.00000000 
Cl       1.77650000       1.77650000       1.77650000 
2
Lattice="0.0 2.7015 2.7015 2.7015 0.0 2.7015 2.7015 2.7015 0.0" Properties=species:S:1:pos:R:3 energy=-15748.3526563 pbc="T T T"
Si       0.00000000       0.00000000       0.00000000 
Si       1.35075000       1.35075000       1.35075000 
2
Lattice="0.0 2.1725 2.1725 2.1725 0.0 2.1725 2.1725 2.1725 0.0" Properties=species:S:1:pos:R:3 energy=-8073.00399515 pbc="T T T"
Al       0.00000000       0.00000000       0.00000000 
N       1.08625000       1.08625000       1.08625000 
2
Lattice="0.0 3.7255 3.7255 3.7255 0.0 3.7255 3.7255 3.7255 0.0" Properties=species:S:1:pos:R:3 energy=-152947.051144 pbc="T T T"
Rb       0.00000000       0.00000000       0.00000000 
Br       1.86275000       1.86275000       1.86275000 
2
Lattice="0.0 3.209 3.209 3.209 0.0 3.209 3.209 3.209 0.0" Properties=species:S:1:pos:R:3 energy=-84975.9842449 pbc="T T T"
Ca       0.00000000       0.00000000       0.00000000 
Se       1.60450000       1.60450000       1.60450000 
2
Lattice="0.0 3.207 3.207 3.207 0.0 3.207 3.207 3.207 0.0" Properties=species:S:1:pos:R:3 energy=-341429.407704 pbc="T T T"
Cd       0.00000000       0.00000000       0.00000000 
Te       1.60350000       1.60350000       1.60350000 
2
Lattice="0.0 2.718 2.718 2.718 0.0 2.718 2.718 2.718 0.0" Properties=species:S:1:pos:R:3 energy=-15882.1634071 pbc="T T T"
Al       0.00000000       0.00000000       0.00000000 
P       1.35900000       1.35900000       1.35900000 
